System: uname_result(system='Linux', node='gpu25', release='5.15.0-118-generic', version='#128-Ubuntu SMP Fri Jul 5 09:28:59 UTC 2024', machine='x86_64')  Threads 20
Python 3.12.5 | packaged by conda-forge | (main, Aug  8 2024, 18:36:51) [GCC 12.4.0]
numpy 1.26.4  scipy 1.14.1  h5py 3.12.1
Date: Fri Feb 21 13:45:16 2025
PySCF version 2.8.0
PySCF path  /pchem-data/meuwly/boittier/home/pycharmm_test/.venv/lib/python3.12/site-packages/pyscf/__init__.py
CUDA Environment
    CuPy 13.3.0
    CUDA Path /opt/cuda-12.6.1
    CUDA Build Version 12060
    CUDA Driver Version 12040
    CUDA Runtime Version 12060
CUDA toolkit
    cuSolver (11, 4, 1)
    cuBLAS 120601
    cuTENSOR 20002
Device info
    Device name b'NVIDIA GeForce RTX 3090 Ti'
    Device global memory 23.67 GB
    CuPy memory fraction 0.9
    Num. Devices 2
GPU4PySCF 1.3.1
GPU4PySCF path  /pchem-data/meuwly/boittier/home/pycharmm_test/.venv/lib/python3.12/site-packages/gpu4pyscf

[CONFIG] conf_file None
[INPUT] verbose = 6
[INPUT] max_memory = 4000 
[INPUT] num. atoms = 6
[INPUT] num. electrons = 10
[INPUT] charge = 0
[INPUT] spin (= nelec alpha-beta = 2S) = 0
[INPUT] symmetry False subgroup None
[INPUT] Mole.unit = angstrom
[INPUT] Symbol           X                Y                Z      unit          X                Y                Z       unit  Magmom
[INPUT]  1 O      0.000000000000   0.000000000000   2.500000000000 AA    0.000000000000   0.000000000000   4.724315311413 Bohr   0.0
[INPUT]  2 H     -2.663641000000  -0.383071000000   3.095377000000 AA   -5.033551984163  -0.723899276263   5.849414782278 Bohr   0.0
[INPUT]  3 H      0.663588000000   0.383072000000   3.095377000000 AA    1.253999579548   0.723901165989   5.849414782278 Bohr   0.0
[INPUT]  4 GHOST-O   0.000000000000   0.000000000000   2.500000000000 AA    0.000000000000   0.000000000000   4.724315311413 Bohr   0.0
[INPUT]  5 GHOST-H  -2.663641000000  -0.383071000000   3.095377000000 AA   -5.033551984163  -0.723899276263   5.849414782278 Bohr   0.0
[INPUT]  6 GHOST-H   0.663588000000   0.383072000000   3.095377000000 AA    1.253999579548   0.723901165989   5.849414782278 Bohr   0.0
[INPUT] ---------------- BASIS SET ---------------- 
[INPUT] l, kappa, [nprim/nctr], expnt,             c_1 c_2 ...
[INPUT] O
[INPUT] 0    0    [6    /1   ]  8588.5            0.00189515
                                1297.23           0.0143859
                                299.296           0.070732
                                87.3771           0.240001
                                25.6789           0.594797
                                3.74004           0.280802
[INPUT] 0    0    [3    /1   ]  42.1175           0.113889
                                9.62837           0.920811
                                2.85332           -0.00327447
[INPUT] 0    0    [1    /1   ]  0.905661             1
[INPUT] 0    0    [1    /1   ]  0.255611             1
[INPUT] 1    0    [3    /1   ]  42.1175           0.0365114
                                9.62837           0.237153
                                2.85332           0.819702
[INPUT] 1    0    [1    /1   ]  0.905661             1
[INPUT] 1    0    [1    /1   ]  0.255611             1
[INPUT] GHOST-H
[INPUT] 0    0    [3    /1   ]  33.865            0.0254938
                                5.09479           0.190373
                                1.15879           0.852161
[INPUT] 0    0    [1    /1   ]  0.32584              1
[INPUT] 0    0    [1    /1   ]  0.102741             1
[INPUT] GHOST-O
[INPUT] 0    0    [6    /1   ]  8588.5            0.00189515
                                1297.23           0.0143859
                                299.296           0.070732
                                87.3771           0.240001
                                25.6789           0.594797
                                3.74004           0.280802
[INPUT] 0    0    [3    /1   ]  42.1175           0.113889
                                9.62837           0.920811
                                2.85332           -0.00327447
[INPUT] 0    0    [1    /1   ]  0.905661             1
[INPUT] 0    0    [1    /1   ]  0.255611             1
[INPUT] 1    0    [3    /1   ]  42.1175           0.0365114
                                9.62837           0.237153
                                2.85332           0.819702
[INPUT] 1    0    [1    /1   ]  0.905661             1
[INPUT] 1    0    [1    /1   ]  0.255611             1
[INPUT] H
[INPUT] 0    0    [3    /1   ]  33.865            0.0254938
                                5.09479           0.190373
                                1.15879           0.852161
[INPUT] 0    0    [1    /1   ]  0.32584              1
[INPUT] 0    0    [1    /1   ]  0.102741             1

nuclear repulsion = 6.05379669734939
number of shells = 26
number of NR pGTOs = 72
number of NR cGTOs = 38
basis = 6311g
ecp = {}
CPU time:      1052.63


******** <class 'gpu4pyscf.dft.rks.RKS'> ********
method = RKS
initial guess = minao
damping factor = 0
level_shift factor = 0
DIIS = <class 'gpu4pyscf.scf.diis.CDIIS'>
diis_start_cycle = 1
diis_space = 8
diis_damp = 0
SCF conv_tol = 1e-10
SCF conv_tol_grad = None
SCF max_cycles = 50
direct_scf = True
direct_scf_tol = 1e-13
max_memory 4000 MB (current use 2221 MB)
cond(S) = 1.1320017813655456e+18

WARN: Singularity detected in overlap matrix (condition number = 1.13e+18). SCF may be inaccurate and hard to converge.

Set gradient conv threshold to 1e-05
Initial guess from minao.
atom O rad-grids = 99, ang-grids = [ 50  50  50  50  50  50  50  50  50  50  50  50  50  50  50  50  50  50
  50  50  50  50  50  50  50  50  50  50  50  50  86  86  86  86  86  86
  86  86  86  86  86  86  86 434 434 434 434 434 434 434 434 590 590 590
 590 590 590 590 590 590 590 590 590 590 590 590 590 590 590 590 590 590
 590 590 590 590 590 590 434 434 434 434 434 434 434 434 434 434 434 434
 434 434 434 434 434 434 434 434 434]
atom H rad-grids = 99, ang-grids = [ 50  50  50  50  50  50  50  50  50  50  50  50  50  50  50  50  50  50
  50  50  50  50  50  50  50  50  50  50  50  50  86  86  86  86  86  86
  86 434 434 434 434 434 434 434 434 434 434 590 590 590 590 590 590 590
 590 590 590 590 590 590 590 590 590 590 590 590 590 590 590 590 590 590
 590 590 434 434 434 434 434 434 434 434 434 434 434 434 434 434 434 434
 434 434 434 434 434 434 434 434 434]
atom GHOST-O rad-grids = 99, ang-grids = [ 50  50  50  50  50  50  50  50  50  50  50  50  50  50  50  50  50  50
  50  50  50  50  50  50  50  50  50  50  50  50  50  50  50  50  50  50
  50  50  50  50  50  50  50  50  50  50  50  50  50  86  86  86  86  86
  86  86  86  86  86  86 434 434 434 434 434 434 434 434 434 434 434 434
 434 434 590 590 590 590 590 590 590 590 590 590 590 590 590 590 590 590
 590 590 590 590 590 590 590 590 434]
atom GHOST-H rad-grids = 99, ang-grids = [ 50  50  50  50  50  50  50  50  50  50  50  50  50  50  50  50  50  50
  50  50  50  50  50  50  50  50  50  50  50  50  50  50  50  50  50  50
  50  50  50  50  50  50  50  50  50  50  50  50  50  86  86  86  86  86
  86  86  86  86  86  86 434 434 434 434 434 434 434 434 434 434 434 434
 434 434 590 590 590 590 590 590 590 590 590 590 590 590 590 590 590 590
 590 590 590 590 590 590 590 590 434]
Padding 208 grids
tot grids = 169984
Number of shells for each [l, nctr] group
    [0 1] : 12
    [0 3] : 6
    [0 6] : 2
    [1 1] : 4
    [1 3] : 2
GPU Memory 21.3 GB available, block size 16384
    CPU time for eval rho                                                0.01 sec, wall time      0.01 sec, GPU time     12.18 ms
    CPU time for setting up grids                                        0.65 sec, wall time      0.04 sec, GPU time     44.41 ms
98304 grids on Device 0
71680 grids on Device 1
    CPU time for eval rho on Device 1                                    0.03 sec, wall time      0.02 sec, GPU time     22.16 ms
    CPU time for eval rho on Device 0                                    0.04 sec, wall time      0.03 sec, GPU time     32.79 ms
    CPU time for eval vxc on Device 1                                    0.01 sec, wall time      0.00 sec, GPU time      4.21 ms
    CPU time for eval vxc on Device 0                                    0.01 sec, wall time      0.00 sec, GPU time      4.75 ms
    CPU time for eval integration on 1                                   0.01 sec, wall time      0.00 sec, GPU time      4.84 ms
    CPU time for eval integration on 0                                   0.01 sec, wall time      0.00 sec, GPU time      4.38 ms
    CPU time for nr_rks                                                  0.06 sec, wall time      0.05 sec, GPU time     46.76 ms
    CPU time for vxc tot                                                 0.71 sec, wall time      0.09 sec, GPU time     91.31 ms
Number of shells for each [l, nprim] group
    [0 6] : 2 -> 2
    [0 3] : 6 -> 6
    [0 1] : 12 -> 12
    [1 3] : 2 -> 2
    [1 1] : 4 -> 4
    CPU time for Initialize q_cond                                       0.01 sec, wall time      0.00 sec, GPU time      4.28 ms
    CPU time for q_cond and dm_cond on Device 0                          0.03 sec, wall time      0.03 sec, GPU time     28.05 ms
    CPU time for q_cond and dm_cond on Device 1                          0.03 sec, wall time      0.03 sec, GPU time     28.25 ms
    CPU time for processing (pp|pp), tasks = 55 on Device 0              0.00 sec, wall time      0.00 sec, GPU time      3.66 ms
    CPU time for processing (pp|pp), tasks = 60 on Device 1              0.00 sec, wall time      0.00 sec, GPU time      3.31 ms
    CPU time for processing (pp|ps), tasks = 360 on Device 0             0.00 sec, wall time      0.00 sec, GPU time      0.28 ms
    CPU time for processing (pp|ps), tasks = 180 on Device 1             0.00 sec, wall time      0.00 sec, GPU time      0.32 ms
    CPU time for processing (pp|ps), tasks = 60 on Device 0              0.00 sec, wall time      0.00 sec, GPU time      0.32 ms
    CPU time for processing (pp|ps), tasks = 240 on Device 0             0.00 sec, wall time      0.00 sec, GPU time      0.24 ms
    CPU time for processing (pp|pp), tasks = 30 on Device 1              0.00 sec, wall time      0.00 sec, GPU time      0.50 ms
    CPU time for processing (pp|ps), tasks = 120 on Device 0             0.00 sec, wall time      0.00 sec, GPU time      0.33 ms
    CPU time for processing (pp|ps), tasks = 40 on Device 1              0.00 sec, wall time      0.00 sec, GPU time      0.38 ms
    CPU time for processing (pp|ss), tasks = 780 on Device 0             0.00 sec, wall time      0.00 sec, GPU time      0.28 ms
    CPU time for processing (pp|ss), tasks = 720 on Device 1             0.00 sec, wall time      0.00 sec, GPU time      0.26 ms
    CPU time for processing (pp|ss), tasks = 240 on Device 0             0.00 sec, wall time      0.00 sec, GPU time      0.30 ms
    CPU time for processing (pp|ss), tasks = 202 on Device 1             0.00 sec, wall time      0.00 sec, GPU time      0.35 ms
    CPU time for processing (pp|ss), tasks = 120 on Device 0             0.00 sec, wall time      0.00 sec, GPU time      0.48 ms
    CPU time for processing (pp|ss), tasks = 30 on Device 1              0.00 sec, wall time      0.00 sec, GPU time      0.47 ms
    CPU time for processing (pp|pp), tasks = 20 on Device 0              0.00 sec, wall time      0.00 sec, GPU time      0.29 ms
    CPU time for processing (pp|pp), tasks = 36 on Device 1              0.00 sec, wall time      0.00 sec, GPU time      0.34 ms
    CPU time for processing (pp|ps), tasks = 240 on Device 0             0.00 sec, wall time      0.00 sec, GPU time      0.27 ms
    CPU time for processing (pp|ps), tasks = 120 on Device 1             0.00 sec, wall time      0.00 sec, GPU time      0.34 ms
    CPU time for processing (pp|ps), tasks = 40 on Device 0              0.00 sec, wall time      0.00 sec, GPU time      0.40 ms
    CPU time for processing (pp|ps), tasks = 192 on Device 0             0.00 sec, wall time      0.00 sec, GPU time      0.30 ms
    CPU time for processing (pp|pp), tasks = 24 on Device 1              0.00 sec, wall time      0.00 sec, GPU time      0.66 ms
    CPU time for processing (pp|ps), tasks = 96 on Device 0              0.00 sec, wall time      0.00 sec, GPU time      0.60 ms
    CPU time for processing (pp|ss), tasks = 624 on Device 0             0.00 sec, wall time      0.00 sec, GPU time      0.23 ms
    CPU time for processing (pp|ps), tasks = 32 on Device 1              0.00 sec, wall time      0.00 sec, GPU time      0.69 ms
    CPU time for processing (pp|ss), tasks = 576 on Device 0             0.00 sec, wall time      0.00 sec, GPU time      0.43 ms
    CPU time for processing (pp|ss), tasks = 192 on Device 1             0.00 sec, wall time      0.00 sec, GPU time      0.37 ms
    CPU time for processing (pp|ss), tasks = 152 on Device 0             0.00 sec, wall time      0.00 sec, GPU time      0.62 ms
    CPU time for processing (pp|ss), tasks = 96 on Device 1              0.00 sec, wall time      0.00 sec, GPU time      1.23 ms
    CPU time for processing (ps|pp), tasks = 120 on Device 1             0.00 sec, wall time      0.00 sec, GPU time      0.17 ms
    CPU time for processing (pp|ss), tasks = 24 on Device 0              0.00 sec, wall time      0.00 sec, GPU time      0.94 ms
    CPU time for processing (ps|pp), tasks = 144 on Device 1             0.00 sec, wall time      0.00 sec, GPU time      0.21 ms
    CPU time for processing (ps|ps), tasks = 1176 on Device 0            0.00 sec, wall time      0.00 sec, GPU time      0.35 ms
    CPU time for processing (ps|ps), tasks = 720 on Device 1             0.00 sec, wall time      0.00 sec, GPU time      0.37 ms
    CPU time for processing (ps|ps), tasks = 240 on Device 0             0.00 sec, wall time      0.00 sec, GPU time      0.27 ms
    CPU time for processing (ps|pp), tasks = 144 on Device 1             0.00 sec, wall time      0.00 sec, GPU time      0.35 ms
    CPU time for processing (ps|ps), tasks = 1152 on Device 0            0.00 sec, wall time      0.00 sec, GPU time      0.25 ms
    CPU time for processing (ps|ps), tasks = 576 on Device 1             0.00 sec, wall time      0.00 sec, GPU time      0.34 ms
    CPU time for processing (ps|ss), tasks = 3744 on Device 1            0.00 sec, wall time      0.00 sec, GPU time      0.17 ms
    CPU time for processing (ps|ps), tasks = 192 on Device 0             0.00 sec, wall time      0.00 sec, GPU time      0.51 ms
    CPU time for processing (ps|ss), tasks = 3456 on Device 1            0.00 sec, wall time      0.00 sec, GPU time      0.30 ms
    CPU time for processing (ps|ss), tasks = 1152 on Device 0            0.00 sec, wall time      0.00 sec, GPU time      0.35 ms
    CPU time for processing (ps|ss), tasks = 848 on Device 1             0.00 sec, wall time      0.00 sec, GPU time      0.30 ms
    CPU time for processing (ps|ss), tasks = 552 on Device 0             0.00 sec, wall time      0.00 sec, GPU time      0.45 ms
    CPU time for processing (ps|pp), tasks = 60 on Device 0              0.00 sec, wall time      0.00 sec, GPU time      0.18 ms
    CPU time for processing (ps|ss), tasks = 144 on Device 1             0.00 sec, wall time      0.00 sec, GPU time      0.67 ms
    CPU time for processing (ps|pp), tasks = 72 on Device 0              0.00 sec, wall time      0.00 sec, GPU time      0.34 ms
    CPU time for processing (ps|ps), tasks = 432 on Device 1             0.00 sec, wall time      0.00 sec, GPU time      0.20 ms
    CPU time for processing (ps|ps), tasks = 300 on Device 0             0.00 sec, wall time      0.00 sec, GPU time      0.36 ms
    CPU time for processing (ps|ps), tasks = 120 on Device 1             0.00 sec, wall time      0.00 sec, GPU time      0.43 ms
    CPU time for processing (ps|ps), tasks = 576 on Device 1             0.00 sec, wall time      0.00 sec, GPU time      0.27 ms
    CPU time for processing (ps|pp), tasks = 72 on Device 0              0.00 sec, wall time      0.00 sec, GPU time      0.58 ms
    CPU time for processing (ps|ps), tasks = 272 on Device 1             0.00 sec, wall time      0.00 sec, GPU time      0.54 ms
    CPU time for processing (ps|ss), tasks = 1872 on Device 1            0.00 sec, wall time      0.00 sec, GPU time      0.21 ms
    CPU time for processing (ps|ps), tasks = 96 on Device 0              0.00 sec, wall time      0.00 sec, GPU time      0.83 ms
    CPU time for processing (ps|ss), tasks = 1728 on Device 1            0.00 sec, wall time      0.00 sec, GPU time      0.38 ms
    CPU time for processing (ps|ss), tasks = 576 on Device 0             0.00 sec, wall time      0.00 sec, GPU time      0.36 ms
    CPU time for processing (ps|ss), tasks = 392 on Device 1             0.00 sec, wall time      0.00 sec, GPU time      0.50 ms
    CPU time for processing (ps|ss), tasks = 244 on Device 0             0.00 sec, wall time      0.00 sec, GPU time      0.85 ms
    CPU time for processing (ps|pp), tasks = 20 on Device 0              0.00 sec, wall time      0.00 sec, GPU time      0.18 ms
    CPU time for processing (ps|pp), tasks = 24 on Device 0              0.00 sec, wall time      0.00 sec, GPU time      0.28 ms
    CPU time for processing (ps|ps), tasks = 144 on Device 0             0.00 sec, wall time      0.00 sec, GPU time      0.19 ms
    CPU time for processing (ps|ss), tasks = 72 on Device 1              0.00 sec, wall time      0.00 sec, GPU time      1.35 ms
    CPU time for processing (ps|ps), tasks = 72 on Device 0              0.00 sec, wall time      0.00 sec, GPU time      0.34 ms
    CPU time for processing (ps|ps), tasks = 36 on Device 1              0.00 sec, wall time      0.00 sec, GPU time      0.37 ms
    CPU time for processing (ps|ps), tasks = 192 on Device 1             0.00 sec, wall time      0.00 sec, GPU time      0.30 ms
    CPU time for processing (ps|pp), tasks = 24 on Device 0              0.00 sec, wall time      0.00 sec, GPU time      0.59 ms
    CPU time for processing (ps|ps), tasks = 96 on Device 1              0.00 sec, wall time      0.00 sec, GPU time      0.86 ms
    CPU time for processing (ps|ps), tasks = 32 on Device 0              0.00 sec, wall time      0.00 sec, GPU time      0.91 ms
    CPU time for processing (ps|ss), tasks = 624 on Device 1             0.00 sec, wall time      0.00 sec, GPU time      0.26 ms
    CPU time for processing (ps|ss), tasks = 192 on Device 1             0.00 sec, wall time      0.00 sec, GPU time      0.44 ms
    CPU time for processing (ps|ss), tasks = 576 on Device 0             0.00 sec, wall time      0.00 sec, GPU time      0.65 ms
    CPU time for processing (ps|ss), tasks = 136 on Device 1             0.00 sec, wall time      0.00 sec, GPU time      0.75 ms
    CPU time for processing (ps|ss), tasks = 84 on Device 0              0.00 sec, wall time      0.00 sec, GPU time      1.47 ms
    CPU time for processing (ps|ss), tasks = 24 on Device 1              0.00 sec, wall time      0.00 sec, GPU time      1.23 ms
    CPU time for processing (pp|ps), tasks = 60 on Device 1              0.00 sec, wall time      0.00 sec, GPU time      0.44 ms
    CPU time for processing (pp|pp), tasks = 6 on Device 0               0.00 sec, wall time      0.00 sec, GPU time      1.59 ms
    CPU time for processing (pp|ps), tasks = 30 on Device 1              0.00 sec, wall time      0.00 sec, GPU time      1.35 ms
    CPU time for processing (pp|ss), tasks = 234 on Device 1             0.00 sec, wall time      0.00 sec, GPU time      0.30 ms
    CPU time for processing (pp|ps), tasks = 10 on Device 0              0.00 sec, wall time      0.00 sec, GPU time      1.40 ms
    CPU time for processing (pp|ss), tasks = 216 on Device 1             0.00 sec, wall time      0.00 sec, GPU time      0.66 ms
    CPU time for processing (pp|ss), tasks = 72 on Device 0              0.00 sec, wall time      0.00 sec, GPU time      0.67 ms
    CPU time for processing (pp|ss), tasks = 63 on Device 1              0.00 sec, wall time      0.00 sec, GPU time      1.25 ms
    CPU time for processing (pp|ss), tasks = 36 on Device 0              0.00 sec, wall time      0.00 sec, GPU time      2.42 ms
    CPU time for processing (pp|ss), tasks = 9 on Device 1               0.00 sec, wall time      0.00 sec, GPU time      2.21 ms
    CPU time for processing (ps|pp), tasks = 12 on Device 0              0.00 sec, wall time      0.00 sec, GPU time      0.62 ms
    CPU time for processing (ps|ps), tasks = 300 on Device 1             0.00 sec, wall time      0.00 sec, GPU time      0.31 ms
    CPU time for processing (ps|ps), tasks = 216 on Device 0             0.00 sec, wall time      0.00 sec, GPU time      0.58 ms
    CPU time for processing (ps|ss), tasks = 1872 on Device 0            0.00 sec, wall time      0.00 sec, GPU time      0.22 ms
    CPU time for processing (ps|ps), tasks = 72 on Device 1              0.00 sec, wall time      0.00 sec, GPU time      0.91 ms
    CPU time for processing (ps|ss), tasks = 1728 on Device 0            0.00 sec, wall time      0.00 sec, GPU time      0.42 ms
    CPU time for processing (ps|ss), tasks = 576 on Device 1             0.00 sec, wall time      0.00 sec, GPU time      0.37 ms
    CPU time for processing (ps|ss), tasks = 392 on Device 0             0.00 sec, wall time      0.00 sec, GPU time      0.53 ms
    CPU time for processing (ps|ss), tasks = 256 on Device 1             0.00 sec, wall time      0.00 sec, GPU time      0.83 ms
    CPU time for processing (ps|ss), tasks = 72 on Device 0              0.00 sec, wall time      0.00 sec, GPU time      1.52 ms
    CPU time for processing (ps|pp), tasks = 6 on Device 1               0.00 sec, wall time      0.00 sec, GPU time      1.32 ms
    CPU time for processing (ps|ps), tasks = 72 on Device 0              0.00 sec, wall time      0.00 sec, GPU time      0.52 ms
    CPU time for processing (ps|ps), tasks = 68 on Device 1              0.00 sec, wall time      0.00 sec, GPU time      1.24 ms
    CPU time for processing (ps|ss), tasks = 936 on Device 1             0.00 sec, wall time      0.00 sec, GPU time      0.35 ms
    CPU time for processing (ps|ps), tasks = 36 on Device 0              0.00 sec, wall time      0.00 sec, GPU time      2.18 ms
    CPU time for processing (ps|ss), tasks = 800 on Device 1             0.00 sec, wall time      0.00 sec, GPU time      0.85 ms
    CPU time for processing (ps|ss), tasks = 272 on Device 0             0.00 sec, wall time      0.00 sec, GPU time      0.75 ms
    CPU time for processing (ps|ss), tasks = 192 on Device 1             0.00 sec, wall time      0.00 sec, GPU time      1.20 ms
    CPU time for processing (ps|ss), tasks = 128 on Device 0             0.00 sec, wall time      0.00 sec, GPU time      2.15 ms
    CPU time for processing (ps|pp), tasks = 2 on Device 0               0.00 sec, wall time      0.00 sec, GPU time      1.35 ms
    CPU time for processing (ps|ps), tasks = 24 on Device 0              0.00 sec, wall time      0.00 sec, GPU time      0.55 ms
    CPU time for processing (ps|ss), tasks = 36 on Device 1              0.01 sec, wall time      0.00 sec, GPU time      3.59 ms
    CPU time for processing (ps|ps), tasks = 12 on Device 0              0.01 sec, wall time      0.00 sec, GPU time      2.18 ms
    CPU time for processing (ps|ps), tasks = 10 on Device 1              0.00 sec, wall time      0.00 sec, GPU time      2.18 ms
    CPU time for processing (ps|ss), tasks = 312 on Device 0             0.00 sec, wall time      0.00 sec, GPU time      0.47 ms
    CPU time for processing (ps|ss), tasks = 96 on Device 0              0.00 sec, wall time      0.00 sec, GPU time      0.87 ms
    CPU time for processing (ps|ss), tasks = 288 on Device 1             0.00 sec, wall time      0.00 sec, GPU time      1.38 ms
    CPU time for processing (ps|ss), tasks = 68 on Device 0              0.00 sec, wall time      0.00 sec, GPU time      1.87 ms
    CPU time for processing (ps|ss), tasks = 48 on Device 1              0.01 sec, wall time      0.00 sec, GPU time      3.91 ms
    CPU time for processing (ss|ss), tasks = 3081 on Device 1            0.00 sec, wall time      0.00 sec, GPU time      0.16 ms
    CPU time for processing (ss|ss), tasks = 3900 on Device 1            0.00 sec, wall time      0.00 sec, GPU time      0.20 ms
    CPU time for processing (ss|ss), tasks = 1300 on Device 1            0.00 sec, wall time      0.00 sec, GPU time      0.20 ms
    CPU time for processing (ss|ss), tasks = 1326 on Device 1            0.00 sec, wall time      0.00 sec, GPU time      0.24 ms
    CPU time for processing (ps|ss), tasks = 12 on Device 0              0.01 sec, wall time      0.00 sec, GPU time      3.21 ms
    CPU time for processing (ss|ss), tasks = 864 on Device 1             0.00 sec, wall time      0.00 sec, GPU time      0.37 ms
    CPU time for processing (ss|ss), tasks = 1716 on Device 1            0.00 sec, wall time      0.00 sec, GPU time      0.16 ms
    CPU time for processing (ss|ss), tasks = 234 on Device 0             0.00 sec, wall time      0.00 sec, GPU time      0.60 ms
    CPU time for processing (ss|ss), tasks = 2628 on Device 1            0.00 sec, wall time      0.00 sec, GPU time      0.39 ms
    CPU time for processing (ss|ss), tasks = 936 on Device 0             0.00 sec, wall time      0.00 sec, GPU time      0.32 ms
    CPU time for processing (ss|ss), tasks = 1166 on Device 1            0.00 sec, wall time      0.00 sec, GPU time      0.46 ms
    CPU time for processing (ss|ss), tasks = 712 on Device 0             0.00 sec, wall time      0.00 sec, GPU time      0.69 ms
    CPU time for processing (ss|ss), tasks = 572 on Device 0             0.00 sec, wall time      0.00 sec, GPU time      0.19 ms
    CPU time for processing (ss|ss), tasks = 792 on Device 0             0.00 sec, wall time      0.00 sec, GPU time      0.30 ms
    CPU time for processing (ss|ss), tasks = 216 on Device 1             0.00 sec, wall time      0.00 sec, GPU time      1.26 ms
    CPU time for processing (ss|ss), tasks = 300 on Device 0             0.00 sec, wall time      0.00 sec, GPU time      0.48 ms
    CPU time for processing (ss|ss), tasks = 390 on Device 1             0.00 sec, wall time      0.00 sec, GPU time      0.66 ms
    CPU time for processing (ss|ss), tasks = 244 on Device 0             0.00 sec, wall time      0.00 sec, GPU time      1.18 ms
    CPU time for processing (ss|ss), tasks = 149 on Device 0             0.00 sec, wall time      0.00 sec, GPU time      0.91 ms
    CPU time for processing (ss|ss), tasks = 72 on Device 1              0.00 sec, wall time      0.00 sec, GPU time      2.24 ms
    CPU time for processing (ss|ss), tasks = 119 on Device 0             0.00 sec, wall time      0.00 sec, GPU time      1.70 ms
    CPU time for processing (ss|ss), tasks = 45 on Device 0              0.00 sec, wall time      0.00 sec, GPU time      1.66 ms
    CPU time for processing (ss|ss), tasks = 57 on Device 1              0.01 sec, wall time      0.00 sec, GPU time      3.26 ms
    CPU time for processing (ss|ss), tasks = 56 on Device 0              0.01 sec, wall time      0.00 sec, GPU time      3.17 ms
    CPU time for processing (ss|ss), tasks = 36 on Device 1              0.01 sec, wall time      0.01 sec, GPU time      6.22 ms
    CPU time for processing (ss|ss), tasks = 6 on Device 0               0.01 sec, wall time      0.01 sec, GPU time      5.99 ms
kernel launches 140
(pp|pp) wall time 0.01
(pp|ps) wall time 0.01
(pp|ss) wall time 0.01
(ps|ps) wall time 0.02
(ps|ss) wall time 0.04
(ps|pp) wall time 0.01
(ss|ss) wall time 0.03
    CPU time for vj and vk                                               0.20 sec, wall time      0.10 sec, GPU time     98.34 ms
    CPU time for jk total                                                0.24 sec, wall time      0.10 sec, GPU time    104.14 ms
E1 = -115.82294047309799  Ecoul = 42.69711629186486  Exc = nan
init E= nan
    CPU time for total prep                                              2.62 sec, wall time      0.32 sec, GPU time    315.01 ms
    CPU time for DIIS                                                    0.00 sec, wall time      0.00 sec, GPU time      0.07 ms
    CPU time for eig                                                     0.00 sec, wall time      0.00 sec, GPU time      0.35 ms
    CPU time for dm                                                      0.00 sec, wall time      0.00 sec, GPU time      1.52 ms
98304 grids on Device 0
71680 grids on Device 1
    CPU time for eval rho on Device 1                                    0.02 sec, wall time      0.02 sec, GPU time     15.62 ms
    CPU time for eval rho on Device 0                                    0.02 sec, wall time      0.02 sec, GPU time     17.03 ms
    CPU time for eval vxc on Device 1                                    0.00 sec, wall time      0.00 sec, GPU time      2.72 ms
    CPU time for eval vxc on Device 0                                    0.01 sec, wall time      0.00 sec, GPU time      4.83 ms
    CPU time for eval integration on 1                                   0.01 sec, wall time      0.00 sec, GPU time      4.73 ms
    CPU time for eval integration on 0                                   0.01 sec, wall time      0.00 sec, GPU time      4.46 ms
    CPU time for nr_rks                                                  0.04 sec, wall time      0.03 sec, GPU time     31.03 ms
    CPU time for vxc tot                                                 0.04 sec, wall time      0.03 sec, GPU time     31.12 ms
    CPU time for q_cond and dm_cond on Device 0                          0.02 sec, wall time      0.02 sec, GPU time     21.86 ms
    CPU time for q_cond and dm_cond on Device 1                          0.03 sec, wall time      0.02 sec, GPU time     22.39 ms
    CPU time for processing (pp|pp), tasks = 0 on Device 1               0.00 sec, wall time      0.00 sec, GPU time      0.60 ms
    CPU time for processing (pp|ps), tasks = 0 on Device 1               0.00 sec, wall time      0.00 sec, GPU time      0.17 ms
    CPU time for processing (pp|ps), tasks = 0 on Device 1               0.00 sec, wall time      0.00 sec, GPU time      0.16 ms
    CPU time for processing (pp|ps), tasks = 0 on Device 1               0.00 sec, wall time      0.00 sec, GPU time      0.15 ms
    CPU time for processing (pp|pp), tasks = 0 on Device 1               0.00 sec, wall time      0.00 sec, GPU time      0.15 ms
    CPU time for processing (pp|ps), tasks = 0 on Device 1               0.00 sec, wall time      0.00 sec, GPU time      0.15 ms
    CPU time for processing (pp|pp), tasks = 0 on Device 0               0.00 sec, wall time      0.00 sec, GPU time      2.31 ms
    CPU time for processing (pp|ps), tasks = 0 on Device 1               0.00 sec, wall time      0.00 sec, GPU time      0.26 ms
    CPU time for processing (pp|ps), tasks = 0 on Device 0               0.00 sec, wall time      0.00 sec, GPU time      0.36 ms
    CPU time for processing (pp|ss), tasks = 0 on Device 1               0.00 sec, wall time      0.00 sec, GPU time      0.38 ms
    CPU time for processing (pp|ss), tasks = 0 on Device 0               0.00 sec, wall time      0.00 sec, GPU time      0.21 ms
    CPU time for processing (pp|ss), tasks = 0 on Device 1               0.00 sec, wall time      0.00 sec, GPU time      0.30 ms
    CPU time for processing (pp|ss), tasks = 0 on Device 0               0.00 sec, wall time      0.00 sec, GPU time      0.36 ms
    CPU time for processing (pp|ss), tasks = 0 on Device 1               0.00 sec, wall time      0.00 sec, GPU time      0.30 ms
    CPU time for processing (pp|ss), tasks = 0 on Device 0               0.00 sec, wall time      0.00 sec, GPU time      0.30 ms
    CPU time for processing (pp|pp), tasks = 0 on Device 1               0.00 sec, wall time      0.00 sec, GPU time      0.29 ms
    CPU time for processing (pp|pp), tasks = 0 on Device 0               0.00 sec, wall time      0.00 sec, GPU time      0.29 ms
    CPU time for processing (pp|ps), tasks = 0 on Device 1               0.00 sec, wall time      0.00 sec, GPU time      0.29 ms
    CPU time for processing (pp|ps), tasks = 0 on Device 0               0.00 sec, wall time      0.00 sec, GPU time      0.24 ms
    CPU time for processing (pp|ps), tasks = 0 on Device 1               0.00 sec, wall time      0.00 sec, GPU time      0.29 ms
    CPU time for processing (pp|pp), tasks = 0 on Device 0               0.00 sec, wall time      0.00 sec, GPU time      0.35 ms
    CPU time for processing (pp|ps), tasks = 0 on Device 1               0.00 sec, wall time      0.00 sec, GPU time      0.24 ms
    CPU time for processing (pp|ps), tasks = 0 on Device 0               0.00 sec, wall time      0.00 sec, GPU time      0.29 ms
    CPU time for processing (pp|ps), tasks = 0 on Device 1               0.00 sec, wall time      0.00 sec, GPU time      0.29 ms
    CPU time for processing (pp|ss), tasks = 0 on Device 0               0.00 sec, wall time      0.00 sec, GPU time      0.29 ms
    CPU time for processing (pp|ss), tasks = 0 on Device 1               0.00 sec, wall time      0.00 sec, GPU time      0.34 ms
    CPU time for processing (pp|ss), tasks = 0 on Device 0               0.00 sec, wall time      0.00 sec, GPU time      0.29 ms
    CPU time for processing (pp|ss), tasks = 0 on Device 1               0.00 sec, wall time      0.00 sec, GPU time      0.23 ms
    CPU time for processing (pp|ss), tasks = 0 on Device 0               0.00 sec, wall time      0.00 sec, GPU time      0.33 ms
    CPU time for processing (pp|ss), tasks = 0 on Device 1               0.00 sec, wall time      0.00 sec, GPU time      0.34 ms
    CPU time for processing (ps|pp), tasks = 0 on Device 0               0.00 sec, wall time      0.00 sec, GPU time      0.19 ms
    CPU time for processing (ps|pp), tasks = 0 on Device 1               0.00 sec, wall time      0.00 sec, GPU time      0.29 ms
    CPU time for processing (ps|ps), tasks = 0 on Device 0               0.00 sec, wall time      0.00 sec, GPU time      0.34 ms
    CPU time for processing (ps|ps), tasks = 0 on Device 1               0.00 sec, wall time      0.00 sec, GPU time      0.23 ms
    CPU time for processing (ps|ps), tasks = 0 on Device 0               0.00 sec, wall time      0.00 sec, GPU time      0.33 ms
    CPU time for processing (ps|pp), tasks = 0 on Device 1               0.00 sec, wall time      0.00 sec, GPU time      0.35 ms
    CPU time for processing (ps|ps), tasks = 0 on Device 0               0.00 sec, wall time      0.00 sec, GPU time      0.25 ms
    CPU time for processing (ps|ps), tasks = 0 on Device 1               0.00 sec, wall time      0.00 sec, GPU time      0.29 ms
    CPU time for processing (ps|ps), tasks = 0 on Device 0               0.00 sec, wall time      0.00 sec, GPU time      0.28 ms
    CPU time for processing (ps|ss), tasks = 0 on Device 1               0.00 sec, wall time      0.00 sec, GPU time      0.29 ms
    CPU time for processing (ps|ss), tasks = 0 on Device 0               0.00 sec, wall time      0.00 sec, GPU time      0.30 ms
    CPU time for processing (ps|ss), tasks = 0 on Device 1               0.00 sec, wall time      0.00 sec, GPU time      0.30 ms
    CPU time for processing (ps|ss), tasks = 0 on Device 0               0.00 sec, wall time      0.00 sec, GPU time      0.29 ms
    CPU time for processing (ps|ss), tasks = 0 on Device 1               0.00 sec, wall time      0.00 sec, GPU time      0.23 ms
    CPU time for processing (ps|ss), tasks = 0 on Device 0               0.00 sec, wall time      0.00 sec, GPU time      0.33 ms
    CPU time for processing (ps|pp), tasks = 0 on Device 1               0.00 sec, wall time      0.00 sec, GPU time      0.35 ms
    CPU time for processing (ps|pp), tasks = 0 on Device 0               0.00 sec, wall time      0.00 sec, GPU time      0.19 ms
    CPU time for processing (ps|ps), tasks = 0 on Device 1               0.00 sec, wall time      0.00 sec, GPU time      0.29 ms
    CPU time for processing (ps|ps), tasks = 0 on Device 0               0.00 sec, wall time      0.00 sec, GPU time      0.29 ms
    CPU time for processing (ps|ps), tasks = 0 on Device 1               0.00 sec, wall time      0.00 sec, GPU time      0.29 ms
    CPU time for processing (ps|pp), tasks = 0 on Device 0               0.00 sec, wall time      0.00 sec, GPU time      0.34 ms
    CPU time for processing (ps|ps), tasks = 0 on Device 1               0.00 sec, wall time      0.00 sec, GPU time      0.29 ms
    CPU time for processing (ps|ps), tasks = 0 on Device 0               0.00 sec, wall time      0.00 sec, GPU time      0.28 ms
    CPU time for processing (ps|ps), tasks = 0 on Device 1               0.00 sec, wall time      0.00 sec, GPU time      0.28 ms
    CPU time for processing (ps|ss), tasks = 0 on Device 0               0.00 sec, wall time      0.00 sec, GPU time      0.29 ms
    CPU time for processing (ps|ss), tasks = 0 on Device 1               0.00 sec, wall time      0.00 sec, GPU time      0.29 ms
    CPU time for processing (ps|ss), tasks = 0 on Device 0               0.00 sec, wall time      0.00 sec, GPU time      0.23 ms
    CPU time for processing (ps|ss), tasks = 0 on Device 1               0.00 sec, wall time      0.00 sec, GPU time      0.29 ms
    CPU time for processing (ps|ss), tasks = 0 on Device 0               0.00 sec, wall time      0.00 sec, GPU time      0.34 ms
    CPU time for processing (ps|ss), tasks = 0 on Device 1               0.00 sec, wall time      0.00 sec, GPU time      0.28 ms
    CPU time for processing (ps|pp), tasks = 0 on Device 0               0.00 sec, wall time      0.00 sec, GPU time      0.29 ms
    CPU time for processing (ps|pp), tasks = 0 on Device 1               0.00 sec, wall time      0.00 sec, GPU time      0.23 ms
    CPU time for processing (ps|ps), tasks = 0 on Device 0               0.00 sec, wall time      0.00 sec, GPU time      0.29 ms
    CPU time for processing (ps|ps), tasks = 0 on Device 1               0.00 sec, wall time      0.00 sec, GPU time      0.29 ms
    CPU time for processing (ps|ps), tasks = 0 on Device 0               0.00 sec, wall time      0.00 sec, GPU time      0.51 ms
    CPU time for processing (ps|pp), tasks = 0 on Device 1               0.00 sec, wall time      0.00 sec, GPU time      0.53 ms
    CPU time for processing (ps|ps), tasks = 0 on Device 0               0.00 sec, wall time      0.00 sec, GPU time      0.27 ms
    CPU time for processing (ps|ps), tasks = 0 on Device 1               0.00 sec, wall time      0.00 sec, GPU time      0.25 ms
    CPU time for processing (ps|ps), tasks = 0 on Device 0               0.00 sec, wall time      0.00 sec, GPU time      0.34 ms
    CPU time for processing (ps|ss), tasks = 0 on Device 1               0.00 sec, wall time      0.00 sec, GPU time      0.35 ms
    CPU time for processing (ps|ss), tasks = 0 on Device 0               0.00 sec, wall time      0.00 sec, GPU time      0.25 ms
    CPU time for processing (ps|ss), tasks = 0 on Device 1               0.00 sec, wall time      0.00 sec, GPU time      0.23 ms
    CPU time for processing (ps|ss), tasks = 0 on Device 0               0.00 sec, wall time      0.00 sec, GPU time      0.29 ms
    CPU time for processing (ps|ss), tasks = 0 on Device 1               0.00 sec, wall time      0.00 sec, GPU time      0.29 ms
    CPU time for processing (ps|ss), tasks = 0 on Device 0               0.00 sec, wall time      0.00 sec, GPU time      0.29 ms
    CPU time for processing (pp|pp), tasks = 0 on Device 1               0.00 sec, wall time      0.00 sec, GPU time      0.29 ms
    CPU time for processing (pp|ps), tasks = 0 on Device 0               0.00 sec, wall time      0.00 sec, GPU time      0.33 ms
    CPU time for processing (pp|ps), tasks = 0 on Device 1               0.00 sec, wall time      0.00 sec, GPU time      0.34 ms
    CPU time for processing (pp|ps), tasks = 0 on Device 0               0.00 sec, wall time      0.00 sec, GPU time      0.25 ms
    CPU time for processing (pp|ss), tasks = 0 on Device 1               0.00 sec, wall time      0.00 sec, GPU time      0.23 ms
    CPU time for processing (pp|ss), tasks = 0 on Device 0               0.00 sec, wall time      0.00 sec, GPU time      0.29 ms
    CPU time for processing (pp|ss), tasks = 0 on Device 1               0.00 sec, wall time      0.00 sec, GPU time      0.29 ms
    CPU time for processing (pp|ss), tasks = 0 on Device 0               0.00 sec, wall time      0.00 sec, GPU time      0.28 ms
    CPU time for processing (pp|ss), tasks = 0 on Device 1               0.00 sec, wall time      0.00 sec, GPU time      0.28 ms
    CPU time for processing (pp|ss), tasks = 0 on Device 0               0.00 sec, wall time      0.00 sec, GPU time      0.28 ms
    CPU time for processing (ps|pp), tasks = 0 on Device 1               0.00 sec, wall time      0.00 sec, GPU time      0.34 ms
    CPU time for processing (ps|ps), tasks = 0 on Device 0               0.00 sec, wall time      0.00 sec, GPU time      0.28 ms
    CPU time for processing (ps|ps), tasks = 0 on Device 1               0.00 sec, wall time      0.00 sec, GPU time      0.23 ms
    CPU time for processing (ps|ps), tasks = 0 on Device 0               0.00 sec, wall time      0.00 sec, GPU time      0.28 ms
    CPU time for processing (ps|ss), tasks = 0 on Device 1               0.00 sec, wall time      0.00 sec, GPU time      0.34 ms
    CPU time for processing (ps|ss), tasks = 0 on Device 0               0.00 sec, wall time      0.00 sec, GPU time      0.23 ms
    CPU time for processing (ps|ss), tasks = 0 on Device 1               0.00 sec, wall time      0.00 sec, GPU time      0.28 ms
    CPU time for processing (ps|ss), tasks = 0 on Device 0               0.00 sec, wall time      0.00 sec, GPU time      0.34 ms
    CPU time for processing (ps|ss), tasks = 0 on Device 1               0.00 sec, wall time      0.00 sec, GPU time      0.23 ms
    CPU time for processing (ps|ss), tasks = 0 on Device 0               0.00 sec, wall time      0.00 sec, GPU time      0.30 ms
    CPU time for processing (ps|pp), tasks = 0 on Device 1               0.00 sec, wall time      0.00 sec, GPU time      0.35 ms
    CPU time for processing (ps|ps), tasks = 0 on Device 0               0.00 sec, wall time      0.00 sec, GPU time      0.23 ms
    CPU time for processing (ps|ps), tasks = 0 on Device 1               0.00 sec, wall time      0.00 sec, GPU time      0.29 ms
    CPU time for processing (ps|ps), tasks = 0 on Device 0               0.00 sec, wall time      0.00 sec, GPU time      0.29 ms
    CPU time for processing (ps|ss), tasks = 0 on Device 1               0.00 sec, wall time      0.00 sec, GPU time      0.33 ms
    CPU time for processing (ps|ss), tasks = 0 on Device 0               0.00 sec, wall time      0.00 sec, GPU time      0.34 ms
    CPU time for processing (ps|ss), tasks = 0 on Device 1               0.00 sec, wall time      0.00 sec, GPU time      0.19 ms
    CPU time for processing (ps|ss), tasks = 0 on Device 0               0.00 sec, wall time      0.00 sec, GPU time      0.33 ms
    CPU time for processing (ps|ss), tasks = 0 on Device 1               0.00 sec, wall time      0.00 sec, GPU time      0.34 ms
    CPU time for processing (ps|ss), tasks = 0 on Device 0               0.00 sec, wall time      0.00 sec, GPU time      0.25 ms
    CPU time for processing (ps|pp), tasks = 0 on Device 1               0.00 sec, wall time      0.00 sec, GPU time      0.23 ms
    CPU time for processing (ps|ps), tasks = 0 on Device 0               0.00 sec, wall time      0.00 sec, GPU time      0.29 ms
    CPU time for processing (ps|ps), tasks = 0 on Device 1               0.00 sec, wall time      0.00 sec, GPU time      0.29 ms
    CPU time for processing (ps|ps), tasks = 0 on Device 0               0.00 sec, wall time      0.00 sec, GPU time      0.33 ms
    CPU time for processing (ps|ss), tasks = 0 on Device 1               0.00 sec, wall time      0.00 sec, GPU time      0.35 ms
    CPU time for processing (ps|ss), tasks = 0 on Device 0               0.00 sec, wall time      0.00 sec, GPU time      0.19 ms
    CPU time for processing (ps|ss), tasks = 0 on Device 1               0.00 sec, wall time      0.00 sec, GPU time      0.33 ms
    CPU time for processing (ps|ss), tasks = 0 on Device 0               0.00 sec, wall time      0.00 sec, GPU time      0.34 ms
    CPU time for processing (ps|ss), tasks = 0 on Device 1               0.00 sec, wall time      0.00 sec, GPU time      0.19 ms
    CPU time for processing (ps|ss), tasks = 0 on Device 0               0.00 sec, wall time      0.00 sec, GPU time      0.33 ms
    CPU time for processing (ss|ss), tasks = 0 on Device 1               0.00 sec, wall time      0.00 sec, GPU time      0.34 ms
    CPU time for processing (ss|ss), tasks = 0 on Device 0               0.00 sec, wall time      0.00 sec, GPU time      0.25 ms
    CPU time for processing (ss|ss), tasks = 0 on Device 1               0.00 sec, wall time      0.00 sec, GPU time      0.29 ms
    CPU time for processing (ss|ss), tasks = 0 on Device 0               0.00 sec, wall time      0.00 sec, GPU time      0.23 ms
    CPU time for processing (ss|ss), tasks = 0 on Device 1               0.00 sec, wall time      0.00 sec, GPU time      0.33 ms
    CPU time for processing (ss|ss), tasks = 0 on Device 0               0.00 sec, wall time      0.00 sec, GPU time      0.34 ms
    CPU time for processing (ss|ss), tasks = 0 on Device 1               0.00 sec, wall time      0.00 sec, GPU time      0.19 ms
    CPU time for processing (ss|ss), tasks = 0 on Device 0               0.00 sec, wall time      0.00 sec, GPU time      0.29 ms
    CPU time for processing (ss|ss), tasks = 0 on Device 1               0.00 sec, wall time      0.00 sec, GPU time      0.35 ms
    CPU time for processing (ss|ss), tasks = 0 on Device 0               0.00 sec, wall time      0.00 sec, GPU time      0.28 ms
    CPU time for processing (ss|ss), tasks = 0 on Device 1               0.00 sec, wall time      0.00 sec, GPU time      0.23 ms
    CPU time for processing (ss|ss), tasks = 0 on Device 0               0.00 sec, wall time      0.00 sec, GPU time      0.33 ms
    CPU time for processing (ss|ss), tasks = 0 on Device 1               0.00 sec, wall time      0.00 sec, GPU time      0.34 ms
    CPU time for processing (ss|ss), tasks = 0 on Device 0               0.00 sec, wall time      0.00 sec, GPU time      0.25 ms
    CPU time for processing (ss|ss), tasks = 0 on Device 1               0.00 sec, wall time      0.00 sec, GPU time      0.28 ms
    CPU time for processing (ss|ss), tasks = 0 on Device 0               0.00 sec, wall time      0.00 sec, GPU time      0.23 ms
    CPU time for processing (ss|ss), tasks = 0 on Device 1               0.00 sec, wall time      0.00 sec, GPU time      0.33 ms
    CPU time for processing (ss|ss), tasks = 0 on Device 0               0.00 sec, wall time      0.00 sec, GPU time      0.34 ms
    CPU time for processing (ss|ss), tasks = 0 on Device 1               0.00 sec, wall time      0.00 sec, GPU time      0.19 ms
    CPU time for processing (ss|ss), tasks = 0 on Device 0               0.00 sec, wall time      0.00 sec, GPU time      0.33 ms
    CPU time for processing (ss|ss), tasks = 0 on Device 1               0.00 sec, wall time      0.00 sec, GPU time      0.35 ms
    CPU time for processing (ss|ss), tasks = 0 on Device 0               0.00 sec, wall time      0.00 sec, GPU time      0.25 ms
    CPU time for processing (ss|ss), tasks = 0 on Device 1               0.00 sec, wall time      0.00 sec, GPU time      0.28 ms
    CPU time for processing (ss|ss), tasks = 0 on Device 0               0.00 sec, wall time      0.00 sec, GPU time      0.29 ms
    CPU time for processing (ss|ss), tasks = 0 on Device 1               0.00 sec, wall time      0.00 sec, GPU time      0.28 ms
kernel launches 140
(pp|pp) wall time 0.00
(pp|ps) wall time 0.00
(pp|ss) wall time 0.01
(ps|pp) wall time 0.00
(ps|ps) wall time 0.01
(ps|ss) wall time 0.01
(ss|ss) wall time 0.01
    CPU time for vj and vk                                               0.06 sec, wall time      0.05 sec, GPU time     49.87 ms
    CPU time for jk total                                                0.06 sec, wall time      0.05 sec, GPU time     51.39 ms
    CPU time for veff                                                    0.10 sec, wall time      0.08 sec, GPU time     82.61 ms
E1 = nan  Ecoul = nan  Exc = nan
    CPU time for energy                                                  0.00 sec, wall time      0.00 sec, GPU time      0.59 ms
    CPU time for total                                                   0.10 sec, wall time      0.09 sec, GPU time     85.36 ms
cycle= 1 E= nan  delta_E=  nan  |ddm|=  nan
diis-c [nan nan]
    CPU time for DIIS                                                    0.00 sec, wall time      0.00 sec, GPU time      2.31 ms
    CPU time for eig                                                     0.00 sec, wall time      0.00 sec, GPU time      0.36 ms
    CPU time for dm                                                      0.00 sec, wall time      0.00 sec, GPU time      1.48 ms
98304 grids on Device 0
71680 grids on Device 1
    CPU time for eval rho on Device 1                                    0.02 sec, wall time      0.02 sec, GPU time     15.36 ms
    CPU time for eval rho on Device 0                                    0.02 sec, wall time      0.02 sec, GPU time     16.78 ms
    CPU time for eval vxc on Device 1                                    0.00 sec, wall time      0.00 sec, GPU time      2.73 ms
    CPU time for eval vxc on Device 0                                    0.01 sec, wall time      0.00 sec, GPU time      4.82 ms
    CPU time for eval integration on 1                                   0.01 sec, wall time      0.00 sec, GPU time      4.86 ms
    CPU time for eval integration on 0                                   0.01 sec, wall time      0.00 sec, GPU time      4.52 ms
    CPU time for nr_rks                                                  0.04 sec, wall time      0.03 sec, GPU time     30.91 ms
    CPU time for vxc tot                                                 0.04 sec, wall time      0.03 sec, GPU time     31.00 ms
    CPU time for q_cond and dm_cond on Device 0                          0.02 sec, wall time      0.02 sec, GPU time     22.05 ms
    CPU time for q_cond and dm_cond on Device 1                          0.03 sec, wall time      0.02 sec, GPU time     22.58 ms
    CPU time for processing (pp|pp), tasks = 0 on Device 1               0.00 sec, wall time      0.00 sec, GPU time      0.61 ms
    CPU time for processing (pp|ps), tasks = 0 on Device 1               0.00 sec, wall time      0.00 sec, GPU time      0.17 ms
    CPU time for processing (pp|ps), tasks = 0 on Device 1               0.00 sec, wall time      0.00 sec, GPU time      0.16 ms
    CPU time for processing (pp|ps), tasks = 0 on Device 1               0.00 sec, wall time      0.00 sec, GPU time      0.39 ms
    CPU time for processing (pp|pp), tasks = 0 on Device 0               0.00 sec, wall time      0.00 sec, GPU time      2.31 ms
    CPU time for processing (pp|pp), tasks = 0 on Device 1               0.00 sec, wall time      0.00 sec, GPU time      0.35 ms
    CPU time for processing (pp|ps), tasks = 0 on Device 0               0.00 sec, wall time      0.00 sec, GPU time      0.22 ms
    CPU time for processing (pp|ps), tasks = 0 on Device 1               0.00 sec, wall time      0.00 sec, GPU time      0.37 ms
    CPU time for processing (pp|ps), tasks = 0 on Device 0               0.00 sec, wall time      0.00 sec, GPU time      0.38 ms
    CPU time for processing (pp|ss), tasks = 0 on Device 1               0.00 sec, wall time      0.00 sec, GPU time      0.21 ms
    CPU time for processing (pp|ss), tasks = 0 on Device 0               0.00 sec, wall time      0.00 sec, GPU time      0.30 ms
    CPU time for processing (pp|ss), tasks = 0 on Device 1               0.00 sec, wall time      0.00 sec, GPU time      0.36 ms
    CPU time for processing (pp|ss), tasks = 0 on Device 0               0.00 sec, wall time      0.00 sec, GPU time      0.24 ms
    CPU time for processing (pp|ss), tasks = 0 on Device 1               0.00 sec, wall time      0.00 sec, GPU time      0.30 ms
    CPU time for processing (pp|ss), tasks = 0 on Device 0               0.00 sec, wall time      0.00 sec, GPU time      0.30 ms
    CPU time for processing (pp|pp), tasks = 0 on Device 1               0.00 sec, wall time      0.00 sec, GPU time      0.30 ms
    CPU time for processing (pp|pp), tasks = 0 on Device 0               0.00 sec, wall time      0.00 sec, GPU time      0.30 ms
    CPU time for processing (pp|ps), tasks = 0 on Device 1               0.00 sec, wall time      0.00 sec, GPU time      0.30 ms
    CPU time for processing (pp|ps), tasks = 0 on Device 0               0.00 sec, wall time      0.00 sec, GPU time      0.29 ms
    CPU time for processing (pp|ps), tasks = 0 on Device 1               0.00 sec, wall time      0.00 sec, GPU time      0.29 ms
    CPU time for processing (pp|pp), tasks = 0 on Device 0               0.00 sec, wall time      0.00 sec, GPU time      0.29 ms
    CPU time for processing (pp|ps), tasks = 0 on Device 1               0.00 sec, wall time      0.00 sec, GPU time      0.29 ms
    CPU time for processing (pp|ps), tasks = 0 on Device 0               0.00 sec, wall time      0.00 sec, GPU time      0.29 ms
    CPU time for processing (pp|ps), tasks = 0 on Device 1               0.00 sec, wall time      0.00 sec, GPU time      0.29 ms
    CPU time for processing (pp|ss), tasks = 0 on Device 0               0.00 sec, wall time      0.00 sec, GPU time      0.29 ms
    CPU time for processing (pp|ss), tasks = 0 on Device 1               0.00 sec, wall time      0.00 sec, GPU time      0.33 ms
    CPU time for processing (pp|ss), tasks = 0 on Device 0               0.00 sec, wall time      0.00 sec, GPU time      0.35 ms
    CPU time for processing (pp|ss), tasks = 0 on Device 1               0.00 sec, wall time      0.00 sec, GPU time      0.25 ms
    CPU time for processing (pp|ss), tasks = 0 on Device 0               0.00 sec, wall time      0.00 sec, GPU time      0.24 ms
    CPU time for processing (pp|ss), tasks = 0 on Device 1               0.00 sec, wall time      0.00 sec, GPU time      0.29 ms
    CPU time for processing (ps|pp), tasks = 0 on Device 0               0.00 sec, wall time      0.00 sec, GPU time      0.29 ms
    CPU time for processing (ps|pp), tasks = 0 on Device 1               0.00 sec, wall time      0.00 sec, GPU time      0.30 ms
    CPU time for processing (ps|ps), tasks = 0 on Device 0               0.00 sec, wall time      0.00 sec, GPU time      0.36 ms
    CPU time for processing (ps|ps), tasks = 0 on Device 1               0.00 sec, wall time      0.00 sec, GPU time      0.29 ms
    CPU time for processing (ps|ps), tasks = 0 on Device 0               0.00 sec, wall time      0.00 sec, GPU time      0.29 ms
    CPU time for processing (ps|pp), tasks = 0 on Device 1               0.00 sec, wall time      0.00 sec, GPU time      0.28 ms
    CPU time for processing (ps|ps), tasks = 0 on Device 0               0.00 sec, wall time      0.00 sec, GPU time      0.23 ms
    CPU time for processing (ps|ps), tasks = 0 on Device 1               0.00 sec, wall time      0.00 sec, GPU time      0.29 ms
    CPU time for processing (ps|ps), tasks = 0 on Device 0               0.00 sec, wall time      0.00 sec, GPU time      0.29 ms
    CPU time for processing (ps|ss), tasks = 0 on Device 1               0.00 sec, wall time      0.00 sec, GPU time      0.33 ms
    CPU time for processing (ps|ss), tasks = 0 on Device 0               0.00 sec, wall time      0.00 sec, GPU time      0.34 ms
    CPU time for processing (ps|ss), tasks = 0 on Device 1               0.00 sec, wall time      0.00 sec, GPU time      0.24 ms
    CPU time for processing (ps|ss), tasks = 0 on Device 0               0.00 sec, wall time      0.00 sec, GPU time      0.28 ms
    CPU time for processing (ps|ss), tasks = 0 on Device 1               0.00 sec, wall time      0.00 sec, GPU time      0.28 ms
    CPU time for processing (ps|ss), tasks = 0 on Device 0               0.00 sec, wall time      0.00 sec, GPU time      0.23 ms
    CPU time for processing (ps|pp), tasks = 0 on Device 1               0.00 sec, wall time      0.00 sec, GPU time      0.29 ms
    CPU time for processing (ps|pp), tasks = 0 on Device 0               0.00 sec, wall time      0.00 sec, GPU time      0.29 ms
    CPU time for processing (ps|ps), tasks = 0 on Device 1               0.00 sec, wall time      0.00 sec, GPU time      0.28 ms
    CPU time for processing (ps|ps), tasks = 0 on Device 0               0.00 sec, wall time      0.00 sec, GPU time      0.28 ms
    CPU time for processing (ps|ps), tasks = 0 on Device 1               0.00 sec, wall time      0.00 sec, GPU time      0.28 ms
    CPU time for processing (ps|pp), tasks = 0 on Device 0               0.00 sec, wall time      0.00 sec, GPU time      0.33 ms
    CPU time for processing (ps|ps), tasks = 0 on Device 1               0.00 sec, wall time      0.00 sec, GPU time      0.28 ms
    CPU time for processing (ps|ps), tasks = 0 on Device 0               0.00 sec, wall time      0.00 sec, GPU time      0.23 ms
    CPU time for processing (ps|ps), tasks = 0 on Device 1               0.00 sec, wall time      0.00 sec, GPU time      0.28 ms
    CPU time for processing (ps|ss), tasks = 0 on Device 0               0.00 sec, wall time      0.00 sec, GPU time      0.28 ms
    CPU time for processing (ps|ss), tasks = 0 on Device 1               0.00 sec, wall time      0.00 sec, GPU time      0.32 ms
    CPU time for processing (ps|ss), tasks = 0 on Device 0               0.00 sec, wall time      0.00 sec, GPU time      0.34 ms
    CPU time for processing (ps|ss), tasks = 0 on Device 1               0.00 sec, wall time      0.00 sec, GPU time      0.24 ms
    CPU time for processing (ps|ss), tasks = 0 on Device 0               0.00 sec, wall time      0.00 sec, GPU time      0.28 ms
    CPU time for processing (ps|ss), tasks = 0 on Device 1               0.00 sec, wall time      0.00 sec, GPU time      0.29 ms
    CPU time for processing (ps|pp), tasks = 0 on Device 0               0.00 sec, wall time      0.00 sec, GPU time      0.29 ms
    CPU time for processing (ps|pp), tasks = 0 on Device 1               0.00 sec, wall time      0.00 sec, GPU time      0.23 ms
    CPU time for processing (ps|ps), tasks = 0 on Device 0               0.00 sec, wall time      0.00 sec, GPU time      0.32 ms
    CPU time for processing (ps|ps), tasks = 0 on Device 1               0.00 sec, wall time      0.00 sec, GPU time      0.34 ms
    CPU time for processing (ps|ps), tasks = 0 on Device 0               0.00 sec, wall time      0.00 sec, GPU time      0.19 ms
    CPU time for processing (ps|pp), tasks = 0 on Device 1               0.00 sec, wall time      0.00 sec, GPU time      0.28 ms
    CPU time for processing (ps|ps), tasks = 0 on Device 0               0.00 sec, wall time      0.00 sec, GPU time      0.28 ms
    CPU time for processing (ps|ps), tasks = 0 on Device 1               0.00 sec, wall time      0.00 sec, GPU time      0.28 ms
    CPU time for processing (ps|ps), tasks = 0 on Device 0               0.00 sec, wall time      0.00 sec, GPU time      0.34 ms
    CPU time for processing (ps|ss), tasks = 0 on Device 1               0.00 sec, wall time      0.00 sec, GPU time      0.23 ms
    CPU time for processing (ps|ss), tasks = 0 on Device 0               0.00 sec, wall time      0.00 sec, GPU time      0.33 ms
    CPU time for processing (ps|ss), tasks = 0 on Device 1               0.00 sec, wall time      0.00 sec, GPU time      0.34 ms
    CPU time for processing (ps|ss), tasks = 0 on Device 0               0.00 sec, wall time      0.00 sec, GPU time      0.19 ms
    CPU time for processing (ps|ss), tasks = 0 on Device 1               0.00 sec, wall time      0.00 sec, GPU time      0.33 ms
    CPU time for processing (ps|ss), tasks = 0 on Device 0               0.00 sec, wall time      0.00 sec, GPU time      0.34 ms
    CPU time for processing (pp|pp), tasks = 0 on Device 1               0.00 sec, wall time      0.00 sec, GPU time      0.19 ms
    CPU time for processing (pp|ps), tasks = 0 on Device 0               0.00 sec, wall time      0.00 sec, GPU time      0.33 ms
    CPU time for processing (pp|ps), tasks = 0 on Device 1               0.00 sec, wall time      0.00 sec, GPU time      0.35 ms
    CPU time for processing (pp|ps), tasks = 0 on Device 0               0.00 sec, wall time      0.00 sec, GPU time      0.19 ms
    CPU time for processing (pp|ss), tasks = 0 on Device 1               0.00 sec, wall time      0.00 sec, GPU time      0.29 ms
    CPU time for processing (pp|ss), tasks = 0 on Device 0               0.00 sec, wall time      0.00 sec, GPU time      0.29 ms
    CPU time for processing (pp|ss), tasks = 0 on Device 1               0.00 sec, wall time      0.00 sec, GPU time      0.29 ms
    CPU time for processing (pp|ss), tasks = 0 on Device 0               0.00 sec, wall time      0.00 sec, GPU time      0.29 ms
    CPU time for processing (pp|ss), tasks = 0 on Device 1               0.00 sec, wall time      0.00 sec, GPU time      0.29 ms
    CPU time for processing (pp|ss), tasks = 0 on Device 0               0.00 sec, wall time      0.00 sec, GPU time      0.29 ms
    CPU time for processing (ps|pp), tasks = 0 on Device 1               0.00 sec, wall time      0.00 sec, GPU time      0.33 ms
    CPU time for processing (ps|ps), tasks = 0 on Device 0               0.00 sec, wall time      0.00 sec, GPU time      0.34 ms
    CPU time for processing (ps|ps), tasks = 0 on Device 1               0.00 sec, wall time      0.00 sec, GPU time      0.26 ms
    CPU time for processing (ps|ps), tasks = 0 on Device 0               0.00 sec, wall time      0.00 sec, GPU time      0.25 ms
    CPU time for processing (ps|ss), tasks = 0 on Device 1               0.00 sec, wall time      0.00 sec, GPU time      0.33 ms
    CPU time for processing (ps|ss), tasks = 0 on Device 0               0.00 sec, wall time      0.00 sec, GPU time      0.34 ms
    CPU time for processing (ps|ss), tasks = 0 on Device 1               0.00 sec, wall time      0.00 sec, GPU time      0.24 ms
    CPU time for processing (ps|ss), tasks = 0 on Device 0               0.00 sec, wall time      0.00 sec, GPU time      0.23 ms
    CPU time for processing (ps|ss), tasks = 0 on Device 1               0.00 sec, wall time      0.00 sec, GPU time      0.33 ms
    CPU time for processing (ps|ss), tasks = 0 on Device 0               0.00 sec, wall time      0.00 sec, GPU time      0.34 ms
    CPU time for processing (ps|pp), tasks = 0 on Device 1               0.00 sec, wall time      0.00 sec, GPU time      0.19 ms
    CPU time for processing (ps|ps), tasks = 0 on Device 0               0.00 sec, wall time      0.00 sec, GPU time      0.29 ms
    CPU time for processing (ps|ps), tasks = 0 on Device 1               0.00 sec, wall time      0.00 sec, GPU time      0.29 ms
    CPU time for processing (ps|ps), tasks = 0 on Device 0               0.00 sec, wall time      0.00 sec, GPU time      0.28 ms
    CPU time for processing (ps|ss), tasks = 0 on Device 1               0.00 sec, wall time      0.00 sec, GPU time      0.28 ms
    CPU time for processing (ps|ss), tasks = 0 on Device 0               0.00 sec, wall time      0.00 sec, GPU time      0.33 ms
    CPU time for processing (ps|ss), tasks = 0 on Device 1               0.00 sec, wall time      0.00 sec, GPU time      0.34 ms
    CPU time for processing (ps|ss), tasks = 0 on Device 0               0.00 sec, wall time      0.00 sec, GPU time      0.24 ms
    CPU time for processing (ps|ss), tasks = 0 on Device 1               0.00 sec, wall time      0.00 sec, GPU time      0.28 ms
    CPU time for processing (ps|ss), tasks = 0 on Device 0               0.00 sec, wall time      0.00 sec, GPU time      0.23 ms
    CPU time for processing (ps|pp), tasks = 0 on Device 1               0.00 sec, wall time      0.00 sec, GPU time      0.28 ms
    CPU time for processing (ps|ps), tasks = 0 on Device 0               0.00 sec, wall time      0.00 sec, GPU time      0.28 ms
    CPU time for processing (ps|ps), tasks = 0 on Device 1               0.00 sec, wall time      0.00 sec, GPU time      0.28 ms
    CPU time for processing (ps|ps), tasks = 0 on Device 0               0.00 sec, wall time      0.00 sec, GPU time      0.28 ms
    CPU time for processing (ps|ss), tasks = 0 on Device 1               0.00 sec, wall time      0.00 sec, GPU time      0.28 ms
    CPU time for processing (ps|ss), tasks = 0 on Device 0               0.00 sec, wall time      0.00 sec, GPU time      0.29 ms
    CPU time for processing (ps|ss), tasks = 0 on Device 1               0.00 sec, wall time      0.00 sec, GPU time      0.32 ms
    CPU time for processing (ps|ss), tasks = 0 on Device 0               0.00 sec, wall time      0.00 sec, GPU time      0.34 ms
    CPU time for processing (ps|ss), tasks = 0 on Device 1               0.00 sec, wall time      0.00 sec, GPU time      0.19 ms
    CPU time for processing (ps|ss), tasks = 0 on Device 0               0.00 sec, wall time      0.00 sec, GPU time      0.29 ms
    CPU time for processing (ss|ss), tasks = 0 on Device 1               0.00 sec, wall time      0.00 sec, GPU time      0.35 ms
    CPU time for processing (ss|ss), tasks = 0 on Device 0               0.00 sec, wall time      0.00 sec, GPU time      0.30 ms
    CPU time for processing (ss|ss), tasks = 0 on Device 1               0.00 sec, wall time      0.00 sec, GPU time      0.29 ms
    CPU time for processing (ss|ss), tasks = 0 on Device 0               0.00 sec, wall time      0.00 sec, GPU time      0.28 ms
    CPU time for processing (ss|ss), tasks = 0 on Device 1               0.00 sec, wall time      0.00 sec, GPU time      0.23 ms
    CPU time for processing (ss|ss), tasks = 0 on Device 0               0.00 sec, wall time      0.00 sec, GPU time      0.49 ms
    CPU time for processing (ss|ss), tasks = 0 on Device 1               0.00 sec, wall time      0.00 sec, GPU time      0.50 ms
    CPU time for processing (ss|ss), tasks = 0 on Device 0               0.00 sec, wall time      0.00 sec, GPU time      0.25 ms
    CPU time for processing (ss|ss), tasks = 0 on Device 1               0.00 sec, wall time      0.00 sec, GPU time      0.29 ms
    CPU time for processing (ss|ss), tasks = 0 on Device 0               0.00 sec, wall time      0.00 sec, GPU time      0.23 ms
    CPU time for processing (ss|ss), tasks = 0 on Device 1               0.00 sec, wall time      0.00 sec, GPU time      0.29 ms
    CPU time for processing (ss|ss), tasks = 0 on Device 0               0.00 sec, wall time      0.00 sec, GPU time      0.29 ms
    CPU time for processing (ss|ss), tasks = 0 on Device 1               0.00 sec, wall time      0.00 sec, GPU time      0.33 ms
    CPU time for processing (ss|ss), tasks = 0 on Device 0               0.00 sec, wall time      0.00 sec, GPU time      0.34 ms
    CPU time for processing (ss|ss), tasks = 0 on Device 1               0.00 sec, wall time      0.00 sec, GPU time      0.19 ms
    CPU time for processing (ss|ss), tasks = 0 on Device 0               0.00 sec, wall time      0.00 sec, GPU time      0.33 ms
    CPU time for processing (ss|ss), tasks = 0 on Device 1               0.00 sec, wall time      0.00 sec, GPU time      0.34 ms
    CPU time for processing (ss|ss), tasks = 0 on Device 0               0.00 sec, wall time      0.00 sec, GPU time      0.19 ms
    CPU time for processing (ss|ss), tasks = 0 on Device 1               0.00 sec, wall time      0.00 sec, GPU time      0.33 ms
    CPU time for processing (ss|ss), tasks = 0 on Device 0               0.00 sec, wall time      0.00 sec, GPU time      0.34 ms
    CPU time for processing (ss|ss), tasks = 0 on Device 1               0.00 sec, wall time      0.00 sec, GPU time      0.25 ms
    CPU time for processing (ss|ss), tasks = 0 on Device 0               0.00 sec, wall time      0.00 sec, GPU time      0.23 ms
    CPU time for processing (ss|ss), tasks = 0 on Device 1               0.00 sec, wall time      0.00 sec, GPU time      0.29 ms
    CPU time for processing (ss|ss), tasks = 0 on Device 0               0.00 sec, wall time      0.00 sec, GPU time      0.29 ms
    CPU time for processing (ss|ss), tasks = 0 on Device 1               0.00 sec, wall time      0.00 sec, GPU time      0.31 ms
kernel launches 140
(pp|pp) wall time 0.00
(pp|ps) wall time 0.00
(pp|ss) wall time 0.01
(ps|pp) wall time 0.00
(ps|ps) wall time 0.01
(ps|ss) wall time 0.01
(ss|ss) wall time 0.01
    CPU time for vj and vk                                               0.06 sec, wall time      0.05 sec, GPU time     50.30 ms
    CPU time for jk total                                                0.06 sec, wall time      0.05 sec, GPU time     51.79 ms
    CPU time for veff                                                    0.10 sec, wall time      0.08 sec, GPU time     82.90 ms
E1 = nan  Ecoul = nan  Exc = nan
    CPU time for energy                                                  0.00 sec, wall time      0.00 sec, GPU time      0.59 ms
    CPU time for total                                                   0.11 sec, wall time      0.09 sec, GPU time     87.88 ms
cycle= 2 E= nan  delta_E=  nan  |ddm|=  nan
diis-c [nan nan nan]
    CPU time for DIIS                                                    0.00 sec, wall time      0.00 sec, GPU time      2.77 ms
    CPU time for eig                                                     0.00 sec, wall time      0.00 sec, GPU time      0.36 ms
    CPU time for dm                                                      0.00 sec, wall time      0.00 sec, GPU time      1.54 ms
98304 grids on Device 0
71680 grids on Device 1
    CPU time for eval rho on Device 1                                    0.02 sec, wall time      0.02 sec, GPU time     15.30 ms
    CPU time for eval rho on Device 0                                    0.02 sec, wall time      0.02 sec, GPU time     16.63 ms
    CPU time for eval vxc on Device 1                                    0.00 sec, wall time      0.00 sec, GPU time      2.72 ms
    CPU time for eval vxc on Device 0                                    0.01 sec, wall time      0.00 sec, GPU time      4.63 ms
    CPU time for eval integration on 1                                   0.01 sec, wall time      0.00 sec, GPU time      4.92 ms
    CPU time for eval integration on 0                                   0.01 sec, wall time      0.00 sec, GPU time      4.63 ms
    CPU time for nr_rks                                                  0.04 sec, wall time      0.03 sec, GPU time     30.67 ms
    CPU time for vxc tot                                                 0.04 sec, wall time      0.03 sec, GPU time     30.76 ms
    CPU time for q_cond and dm_cond on Device 0                          0.03 sec, wall time      0.02 sec, GPU time     22.36 ms
    CPU time for q_cond and dm_cond on Device 1                          0.03 sec, wall time      0.02 sec, GPU time     22.54 ms
    CPU time for processing (pp|pp), tasks = 0 on Device 1               0.00 sec, wall time      0.00 sec, GPU time      0.76 ms
    CPU time for processing (pp|ps), tasks = 0 on Device 1               0.00 sec, wall time      0.00 sec, GPU time      0.17 ms
    CPU time for processing (pp|ps), tasks = 0 on Device 1               0.00 sec, wall time      0.00 sec, GPU time      0.16 ms
    CPU time for processing (pp|ps), tasks = 0 on Device 1               0.00 sec, wall time      0.00 sec, GPU time      0.16 ms
    CPU time for processing (pp|pp), tasks = 0 on Device 1               0.00 sec, wall time      0.00 sec, GPU time      0.15 ms
    CPU time for processing (pp|ps), tasks = 0 on Device 1               0.00 sec, wall time      0.00 sec, GPU time      0.15 ms
    CPU time for processing (pp|ps), tasks = 0 on Device 1               0.00 sec, wall time      0.00 sec, GPU time      0.15 ms
    CPU time for processing (pp|ps), tasks = 0 on Device 1               0.00 sec, wall time      0.00 sec, GPU time      0.15 ms
    CPU time for processing (pp|pp), tasks = 0 on Device 0               0.00 sec, wall time      0.00 sec, GPU time      2.46 ms
    CPU time for processing (pp|ss), tasks = 0 on Device 1               0.00 sec, wall time      0.00 sec, GPU time      0.32 ms
    CPU time for processing (pp|ss), tasks = 0 on Device 0               0.00 sec, wall time      0.00 sec, GPU time      0.21 ms
    CPU time for processing (pp|ss), tasks = 0 on Device 1               0.00 sec, wall time      0.00 sec, GPU time      0.35 ms
    CPU time for processing (pp|ss), tasks = 0 on Device 0               0.00 sec, wall time      0.00 sec, GPU time      0.36 ms
    CPU time for processing (pp|ss), tasks = 0 on Device 1               0.00 sec, wall time      0.00 sec, GPU time      0.25 ms
    CPU time for processing (pp|ss), tasks = 0 on Device 0               0.00 sec, wall time      0.00 sec, GPU time      0.30 ms
    CPU time for processing (pp|pp), tasks = 0 on Device 1               0.00 sec, wall time      0.00 sec, GPU time      0.29 ms
    CPU time for processing (pp|pp), tasks = 0 on Device 0               0.00 sec, wall time      0.00 sec, GPU time      0.29 ms
    CPU time for processing (pp|ps), tasks = 0 on Device 1               0.00 sec, wall time      0.00 sec, GPU time      0.29 ms
    CPU time for processing (pp|ps), tasks = 0 on Device 0               0.00 sec, wall time      0.00 sec, GPU time      0.29 ms
    CPU time for processing (pp|ps), tasks = 0 on Device 1               0.00 sec, wall time      0.00 sec, GPU time      0.29 ms
    CPU time for processing (pp|pp), tasks = 0 on Device 0               0.00 sec, wall time      0.00 sec, GPU time      0.23 ms
    CPU time for processing (pp|ps), tasks = 0 on Device 1               0.00 sec, wall time      0.00 sec, GPU time      0.29 ms
    CPU time for processing (pp|ps), tasks = 0 on Device 0               0.00 sec, wall time      0.00 sec, GPU time      0.34 ms
    CPU time for processing (pp|ps), tasks = 0 on Device 1               0.00 sec, wall time      0.00 sec, GPU time      0.29 ms
    CPU time for processing (pp|ss), tasks = 0 on Device 0               0.00 sec, wall time      0.00 sec, GPU time      0.24 ms
    CPU time for processing (pp|ss), tasks = 0 on Device 1               0.00 sec, wall time      0.00 sec, GPU time      0.33 ms
    CPU time for processing (pp|ss), tasks = 0 on Device 0               0.00 sec, wall time      0.00 sec, GPU time      0.35 ms
    CPU time for processing (pp|ss), tasks = 0 on Device 1               0.00 sec, wall time      0.00 sec, GPU time      0.25 ms
    CPU time for processing (pp|ss), tasks = 0 on Device 0               0.00 sec, wall time      0.00 sec, GPU time      0.29 ms
    CPU time for processing (pp|ss), tasks = 0 on Device 1               0.00 sec, wall time      0.00 sec, GPU time      0.23 ms
    CPU time for processing (ps|pp), tasks = 0 on Device 0               0.00 sec, wall time      0.00 sec, GPU time      0.29 ms
    CPU time for processing (ps|pp), tasks = 0 on Device 1               0.00 sec, wall time      0.00 sec, GPU time      0.34 ms
    CPU time for processing (ps|ps), tasks = 0 on Device 0               0.00 sec, wall time      0.00 sec, GPU time      0.28 ms
    CPU time for processing (ps|ps), tasks = 0 on Device 1               0.00 sec, wall time      0.00 sec, GPU time      0.28 ms
    CPU time for processing (ps|ps), tasks = 0 on Device 0               0.00 sec, wall time      0.00 sec, GPU time      0.28 ms
    CPU time for processing (ps|pp), tasks = 0 on Device 1               0.00 sec, wall time      0.00 sec, GPU time      0.28 ms
    CPU time for processing (ps|ps), tasks = 0 on Device 0               0.00 sec, wall time      0.00 sec, GPU time      0.29 ms
    CPU time for processing (ps|ps), tasks = 0 on Device 1               0.00 sec, wall time      0.00 sec, GPU time      0.23 ms
    CPU time for processing (ps|ps), tasks = 0 on Device 0               0.00 sec, wall time      0.00 sec, GPU time      0.28 ms
    CPU time for processing (ps|ss), tasks = 0 on Device 1               0.00 sec, wall time      0.00 sec, GPU time      0.28 ms
    CPU time for processing (ps|ss), tasks = 0 on Device 0               0.00 sec, wall time      0.00 sec, GPU time      0.49 ms
    CPU time for processing (ps|ss), tasks = 0 on Device 1               0.00 sec, wall time      0.00 sec, GPU time      0.56 ms
    CPU time for processing (ps|ss), tasks = 0 on Device 0               0.00 sec, wall time      0.00 sec, GPU time      0.30 ms
    CPU time for processing (ps|ss), tasks = 0 on Device 1               0.00 sec, wall time      0.00 sec, GPU time      0.29 ms
    CPU time for processing (ps|ss), tasks = 0 on Device 0               0.00 sec, wall time      0.00 sec, GPU time      0.24 ms
    CPU time for processing (ps|pp), tasks = 0 on Device 1               0.00 sec, wall time      0.00 sec, GPU time      0.29 ms
    CPU time for processing (ps|pp), tasks = 0 on Device 0               0.00 sec, wall time      0.00 sec, GPU time      0.34 ms
    CPU time for processing (ps|ps), tasks = 0 on Device 1               0.00 sec, wall time      0.00 sec, GPU time      0.29 ms
    CPU time for processing (ps|ps), tasks = 0 on Device 0               0.00 sec, wall time      0.00 sec, GPU time      0.29 ms
    CPU time for processing (ps|ps), tasks = 0 on Device 1               0.00 sec, wall time      0.00 sec, GPU time      0.24 ms
    CPU time for processing (ps|pp), tasks = 0 on Device 0               0.00 sec, wall time      0.00 sec, GPU time      0.30 ms
    CPU time for processing (ps|ps), tasks = 0 on Device 1               0.00 sec, wall time      0.00 sec, GPU time      0.29 ms
    CPU time for processing (ps|ps), tasks = 0 on Device 0               0.00 sec, wall time      0.00 sec, GPU time      0.29 ms
    CPU time for processing (ps|ps), tasks = 0 on Device 1               0.00 sec, wall time      0.00 sec, GPU time      0.34 ms
    CPU time for processing (ps|ss), tasks = 0 on Device 0               0.00 sec, wall time      0.00 sec, GPU time      0.23 ms
    CPU time for processing (ps|ss), tasks = 0 on Device 1               0.00 sec, wall time      0.00 sec, GPU time      0.29 ms
    CPU time for processing (ps|ss), tasks = 0 on Device 0               0.00 sec, wall time      0.00 sec, GPU time      0.34 ms
    CPU time for processing (ps|ss), tasks = 0 on Device 1               0.00 sec, wall time      0.00 sec, GPU time      0.28 ms
    CPU time for processing (ps|ss), tasks = 0 on Device 0               0.00 sec, wall time      0.00 sec, GPU time      0.23 ms
    CPU time for processing (ps|ss), tasks = 0 on Device 1               0.00 sec, wall time      0.00 sec, GPU time      0.33 ms
    CPU time for processing (ps|pp), tasks = 0 on Device 0               0.00 sec, wall time      0.00 sec, GPU time      0.34 ms
    CPU time for processing (ps|pp), tasks = 0 on Device 1               0.00 sec, wall time      0.00 sec, GPU time      0.19 ms
    CPU time for processing (ps|ps), tasks = 0 on Device 0               0.00 sec, wall time      0.00 sec, GPU time      0.28 ms
    CPU time for processing (ps|ps), tasks = 0 on Device 1               0.00 sec, wall time      0.00 sec, GPU time      0.34 ms
[...]
    CPU time for eval integration on 0                                   0.01 sec, wall time      0.00 sec, GPU time      4.62 ms
    CPU time for nr_rks                                                  0.04 sec, wall time      0.03 sec, GPU time     30.64 ms
    CPU time for vxc tot                                                 0.04 sec, wall time      0.03 sec, GPU time     30.73 ms
    CPU time for q_cond and dm_cond on Device 0                          0.03 sec, wall time      0.02 sec, GPU time     22.33 ms
    CPU time for q_cond and dm_cond on Device 1                          0.03 sec, wall time      0.02 sec, GPU time     22.52 ms
    CPU time for processing (pp|pp), tasks = 0 on Device 1               0.00 sec, wall time      0.00 sec, GPU time      0.76 ms
    CPU time for processing (pp|ps), tasks = 0 on Device 1               0.00 sec, wall time      0.00 sec, GPU time      0.17 ms
    CPU time for processing (pp|ps), tasks = 0 on Device 1               0.00 sec, wall time      0.00 sec, GPU time      0.16 ms
    CPU time for processing (pp|ps), tasks = 0 on Device 1               0.00 sec, wall time      0.00 sec, GPU time      0.16 ms
    CPU time for processing (pp|pp), tasks = 0 on Device 1               0.00 sec, wall time      0.00 sec, GPU time      0.15 ms
    CPU time for processing (pp|ps), tasks = 0 on Device 1               0.00 sec, wall time      0.00 sec, GPU time      0.15 ms
    CPU time for processing (pp|ps), tasks = 0 on Device 1               0.00 sec, wall time      0.00 sec, GPU time      0.15 ms
    CPU time for processing (pp|ps), tasks = 0 on Device 1               0.00 sec, wall time      0.00 sec, GPU time      0.15 ms
    CPU time for processing (pp|pp), tasks = 0 on Device 0               0.00 sec, wall time      0.00 sec, GPU time      2.68 ms
    CPU time for processing (pp|ss), tasks = 0 on Device 1               0.00 sec, wall time      0.00 sec, GPU time      0.56 ms
    CPU time for processing (pp|ss), tasks = 0 on Device 0               0.00 sec, wall time      0.00 sec, GPU time      0.28 ms
    CPU time for processing (pp|ss), tasks = 0 on Device 1               0.00 sec, wall time      0.00 sec, GPU time      0.32 ms
    CPU time for processing (pp|ss), tasks = 0 on Device 0               0.00 sec, wall time      0.00 sec, GPU time      0.25 ms
    CPU time for processing (pp|ss), tasks = 0 on Device 1               0.00 sec, wall time      0.00 sec, GPU time      0.31 ms
    CPU time for processing (pp|ss), tasks = 0 on Device 0               0.00 sec, wall time      0.00 sec, GPU time      0.30 ms
    CPU time for processing (pp|pp), tasks = 0 on Device 1               0.00 sec, wall time      0.00 sec, GPU time      0.30 ms
    CPU time for processing (pp|pp), tasks = 0 on Device 0               0.00 sec, wall time      0.00 sec, GPU time      0.35 ms
    CPU time for processing (pp|ps), tasks = 0 on Device 1               0.00 sec, wall time      0.00 sec, GPU time      0.24 ms
    CPU time for processing (pp|ps), tasks = 0 on Device 0               0.00 sec, wall time      0.00 sec, GPU time      0.29 ms
    CPU time for processing (pp|ps), tasks = 0 on Device 1               0.00 sec, wall time      0.00 sec, GPU time      0.35 ms
    CPU time for processing (pp|pp), tasks = 0 on Device 0               0.00 sec, wall time      0.00 sec, GPU time      0.23 ms
    CPU time for processing (pp|ps), tasks = 0 on Device 1               0.00 sec, wall time      0.00 sec, GPU time      0.29 ms
    CPU time for processing (pp|ps), tasks = 0 on Device 0               0.00 sec, wall time      0.00 sec, GPU time      0.29 ms
    CPU time for processing (pp|ps), tasks = 0 on Device 1               0.00 sec, wall time      0.00 sec, GPU time      0.29 ms
    CPU time for processing (pp|ss), tasks = 0 on Device 0               0.00 sec, wall time      0.00 sec, GPU time      0.35 ms
    CPU time for processing (pp|ss), tasks = 0 on Device 1               0.00 sec, wall time      0.00 sec, GPU time      0.30 ms
    CPU time for processing (pp|ss), tasks = 0 on Device 0               0.00 sec, wall time      0.00 sec, GPU time      0.24 ms
    CPU time for processing (pp|ss), tasks = 0 on Device 1               0.00 sec, wall time      0.00 sec, GPU time      0.29 ms
    CPU time for processing (pp|ss), tasks = 0 on Device 0               0.00 sec, wall time      0.00 sec, GPU time      0.29 ms
    CPU time for processing (pp|ss), tasks = 0 on Device 1               0.00 sec, wall time      0.00 sec, GPU time      0.33 ms
    CPU time for processing (ps|pp), tasks = 0 on Device 0               0.00 sec, wall time      0.00 sec, GPU time      0.34 ms
    CPU time for processing (ps|pp), tasks = 0 on Device 1               0.00 sec, wall time      0.00 sec, GPU time      0.25 ms
    CPU time for processing (ps|ps), tasks = 0 on Device 0               0.00 sec, wall time      0.00 sec, GPU time      0.29 ms
    CPU time for processing (ps|ps), tasks = 0 on Device 1               0.00 sec, wall time      0.00 sec, GPU time      0.29 ms
    CPU time for processing (ps|ps), tasks = 0 on Device 0               0.00 sec, wall time      0.00 sec, GPU time      0.28 ms
    CPU time for processing (ps|pp), tasks = 0 on Device 1               0.00 sec, wall time      0.00 sec, GPU time      0.28 ms
    CPU time for processing (ps|ps), tasks = 0 on Device 0               0.00 sec, wall time      0.00 sec, GPU time      0.29 ms
    CPU time for processing (ps|ps), tasks = 0 on Device 1               0.00 sec, wall time      0.00 sec, GPU time      0.29 ms
    CPU time for processing (ps|ps), tasks = 0 on Device 0               0.00 sec, wall time      0.00 sec, GPU time      0.29 ms
    CPU time for processing (ps|ss), tasks = 0 on Device 1               0.00 sec, wall time      0.00 sec, GPU time      0.28 ms
    CPU time for processing (ps|ss), tasks = 0 on Device 0               0.00 sec, wall time      0.00 sec, GPU time      0.29 ms
    CPU time for processing (ps|ss), tasks = 0 on Device 1               0.00 sec, wall time      0.00 sec, GPU time      0.29 ms
    CPU time for processing (ps|ss), tasks = 0 on Device 0               0.00 sec, wall time      0.00 sec, GPU time      0.23 ms
    CPU time for processing (ps|ss), tasks = 0 on Device 1               0.00 sec, wall time      0.00 sec, GPU time      0.29 ms
    CPU time for processing (ps|ss), tasks = 0 on Device 0               0.00 sec, wall time      0.00 sec, GPU time      0.34 ms
    CPU time for processing (ps|pp), tasks = 0 on Device 1               0.00 sec, wall time      0.00 sec, GPU time      0.28 ms
    CPU time for processing (ps|pp), tasks = 0 on Device 0               0.00 sec, wall time      0.00 sec, GPU time      0.23 ms
    CPU time for processing (ps|ps), tasks = 0 on Device 1               0.00 sec, wall time      0.00 sec, GPU time      0.29 ms
    CPU time for processing (ps|ps), tasks = 0 on Device 0               0.00 sec, wall time      0.00 sec, GPU time      0.28 ms
    CPU time for processing (ps|ps), tasks = 0 on Device 1               0.00 sec, wall time      0.00 sec, GPU time      0.28 ms
    CPU time for processing (ps|pp), tasks = 0 on Device 0               0.00 sec, wall time      0.00 sec, GPU time      0.28 ms
    CPU time for processing (ps|ps), tasks = 0 on Device 1               0.00 sec, wall time      0.00 sec, GPU time      0.28 ms
    CPU time for processing (ps|ps), tasks = 0 on Device 0               0.00 sec, wall time      0.00 sec, GPU time      0.28 ms
    CPU time for processing (ps|ps), tasks = 0 on Device 1               0.00 sec, wall time      0.00 sec, GPU time      0.29 ms
    CPU time for processing (ps|ss), tasks = 0 on Device 0               0.00 sec, wall time      0.00 sec, GPU time      0.29 ms
    CPU time for processing (ps|ss), tasks = 0 on Device 1               0.00 sec, wall time      0.00 sec, GPU time      0.33 ms
    CPU time for processing (ps|ss), tasks = 0 on Device 0               0.00 sec, wall time      0.00 sec, GPU time      0.34 ms
    CPU time for processing (ps|ss), tasks = 0 on Device 1               0.00 sec, wall time      0.00 sec, GPU time      0.24 ms
    CPU time for processing (ps|ss), tasks = 0 on Device 0               0.00 sec, wall time      0.00 sec, GPU time      0.23 ms
    CPU time for processing (ps|ss), tasks = 0 on Device 1               0.00 sec, wall time      0.00 sec, GPU time      0.29 ms
    CPU time for processing (ps|pp), tasks = 0 on Device 0               0.00 sec, wall time      0.00 sec, GPU time      0.34 ms
    CPU time for processing (ps|pp), tasks = 0 on Device 1               0.00 sec, wall time      0.00 sec, GPU time      0.28 ms
    CPU time for processing (ps|ps), tasks = 0 on Device 0               0.00 sec, wall time      0.00 sec, GPU time      0.23 ms
    CPU time for processing (ps|ps), tasks = 0 on Device 1               0.00 sec, wall time      0.00 sec, GPU time      0.28 ms
    CPU time for processing (ps|ps), tasks = 0 on Device 0               0.00 sec, wall time      0.00 sec, GPU time      0.28 ms
    CPU time for processing (ps|pp), tasks = 0 on Device 1               0.00 sec, wall time      0.00 sec, GPU time      0.28 ms
    CPU time for processing (ps|ps), tasks = 0 on Device 0               0.00 sec, wall time      0.00 sec, GPU time      0.28 ms
    CPU time for processing (ps|ps), tasks = 0 on Device 1               0.00 sec, wall time      0.00 sec, GPU time      0.32 ms
    CPU time for processing (ps|ps), tasks = 0 on Device 0               0.00 sec, wall time      0.00 sec, GPU time      0.34 ms
    CPU time for processing (ps|ss), tasks = 0 on Device 1               0.00 sec, wall time      0.00 sec, GPU time      0.19 ms
    CPU time for processing (ps|ss), tasks = 0 on Device 0               0.00 sec, wall time      0.00 sec, GPU time      0.29 ms
    CPU time for processing (ps|ss), tasks = 0 on Device 1               0.00 sec, wall time      0.00 sec, GPU time      0.34 ms
    CPU time for processing (ps|ss), tasks = 0 on Device 0               0.00 sec, wall time      0.00 sec, GPU time      0.28 ms
    CPU time for processing (ps|ss), tasks = 0 on Device 1               0.00 sec, wall time      0.00 sec, GPU time      0.29 ms
    CPU time for processing (ps|ss), tasks = 0 on Device 0               0.00 sec, wall time      0.00 sec, GPU time      0.23 ms
    CPU time for processing (pp|pp), tasks = 0 on Device 1               0.00 sec, wall time      0.00 sec, GPU time      0.28 ms
    CPU time for processing (pp|ps), tasks = 0 on Device 0               0.00 sec, wall time      0.00 sec, GPU time      0.29 ms
    CPU time for processing (pp|ps), tasks = 0 on Device 1               0.00 sec, wall time      0.00 sec, GPU time      0.29 ms
    CPU time for processing (pp|ps), tasks = 0 on Device 0               0.00 sec, wall time      0.00 sec, GPU time      0.28 ms
    CPU time for processing (pp|ss), tasks = 0 on Device 1               0.00 sec, wall time      0.00 sec, GPU time      0.29 ms
    CPU time for processing (pp|ss), tasks = 0 on Device 0               0.00 sec, wall time      0.00 sec, GPU time      0.35 ms
    CPU time for processing (pp|ss), tasks = 0 on Device 1               0.00 sec, wall time      0.00 sec, GPU time      0.29 ms
    CPU time for processing (pp|ss), tasks = 0 on Device 0               0.00 sec, wall time      0.00 sec, GPU time      0.23 ms
    CPU time for processing (pp|ss), tasks = 0 on Device 1               0.00 sec, wall time      0.00 sec, GPU time      0.29 ms
    CPU time for processing (pp|ss), tasks = 0 on Device 0               0.00 sec, wall time      0.00 sec, GPU time      0.34 ms
    CPU time for processing (ps|pp), tasks = 0 on Device 1               0.00 sec, wall time      0.00 sec, GPU time      0.28 ms
    CPU time for processing (ps|ps), tasks = 0 on Device 0               0.00 sec, wall time      0.00 sec, GPU time      0.23 ms
    CPU time for processing (ps|ps), tasks = 0 on Device 1               0.00 sec, wall time      0.00 sec, GPU time      0.28 ms
    CPU time for processing (ps|ps), tasks = 0 on Device 0               0.00 sec, wall time      0.00 sec, GPU time      0.34 ms
    CPU time for processing (ps|ss), tasks = 0 on Device 1               0.00 sec, wall time      0.00 sec, GPU time      0.28 ms
    CPU time for processing (ps|ss), tasks = 0 on Device 0               0.00 sec, wall time      0.00 sec, GPU time      0.23 ms
    CPU time for processing (ps|ss), tasks = 0 on Device 1               0.00 sec, wall time      0.00 sec, GPU time      0.29 ms
    CPU time for processing (ps|ss), tasks = 0 on Device 0               0.00 sec, wall time      0.00 sec, GPU time      0.29 ms
    CPU time for processing (ps|ss), tasks = 0 on Device 1               0.00 sec, wall time      0.00 sec, GPU time      0.33 ms
    CPU time for processing (ps|ss), tasks = 0 on Device 0               0.00 sec, wall time      0.00 sec, GPU time      0.34 ms
    CPU time for processing (ps|pp), tasks = 0 on Device 1               0.00 sec, wall time      0.00 sec, GPU time      0.25 ms
    CPU time for processing (ps|ps), tasks = 0 on Device 0               0.00 sec, wall time      0.00 sec, GPU time      0.28 ms
    CPU time for processing (ps|ps), tasks = 0 on Device 1               0.00 sec, wall time      0.00 sec, GPU time      0.28 ms
    CPU time for processing (ps|ps), tasks = 0 on Device 0               0.00 sec, wall time      0.00 sec, GPU time      0.28 ms
    CPU time for processing (ps|ss), tasks = 0 on Device 1               0.00 sec, wall time      0.00 sec, GPU time      0.28 ms
    CPU time for processing (ps|ss), tasks = 0 on Device 0               0.00 sec, wall time      0.00 sec, GPU time      0.23 ms
    CPU time for processing (ps|ss), tasks = 0 on Device 1               0.00 sec, wall time      0.00 sec, GPU time      0.33 ms
    CPU time for processing (ps|ss), tasks = 0 on Device 0               0.00 sec, wall time      0.00 sec, GPU time      0.34 ms
    CPU time for processing (ps|ss), tasks = 0 on Device 1               0.00 sec, wall time      0.00 sec, GPU time      0.24 ms
    CPU time for processing (ps|ss), tasks = 0 on Device 0               0.00 sec, wall time      0.00 sec, GPU time      0.28 ms
    CPU time for processing (ps|pp), tasks = 0 on Device 1               0.00 sec, wall time      0.00 sec, GPU time      0.28 ms
    CPU time for processing (ps|ps), tasks = 0 on Device 0               0.00 sec, wall time      0.00 sec, GPU time      0.23 ms
    CPU time for processing (ps|ps), tasks = 0 on Device 1               0.00 sec, wall time      0.00 sec, GPU time      0.29 ms
    CPU time for processing (ps|ps), tasks = 0 on Device 0               0.00 sec, wall time      0.00 sec, GPU time      0.28 ms
    CPU time for processing (ps|ss), tasks = 0 on Device 1               0.00 sec, wall time      0.00 sec, GPU time      0.30 ms
    CPU time for processing (ps|ss), tasks = 0 on Device 0               0.00 sec, wall time      0.00 sec, GPU time      0.30 ms
    CPU time for processing (ps|ss), tasks = 0 on Device 1               0.00 sec, wall time      0.00 sec, GPU time      0.29 ms
    CPU time for processing (ps|ss), tasks = 0 on Device 0               0.00 sec, wall time      0.00 sec, GPU time      0.34 ms
    CPU time for processing (ps|ss), tasks = 0 on Device 1               0.00 sec, wall time      0.00 sec, GPU time      0.28 ms
    CPU time for processing (ps|ss), tasks = 0 on Device 0               0.00 sec, wall time      0.00 sec, GPU time      0.23 ms
    CPU time for processing (ss|ss), tasks = 0 on Device 1               0.00 sec, wall time      0.00 sec, GPU time      0.32 ms
    CPU time for processing (ss|ss), tasks = 0 on Device 0               0.00 sec, wall time      0.00 sec, GPU time      0.34 ms
    CPU time for processing (ss|ss), tasks = 0 on Device 1               0.00 sec, wall time      0.00 sec, GPU time      0.25 ms
    CPU time for processing (ss|ss), tasks = 0 on Device 0               0.00 sec, wall time      0.00 sec, GPU time      0.23 ms
    CPU time for processing (ss|ss), tasks = 0 on Device 1               0.00 sec, wall time      0.00 sec, GPU time      0.29 ms
    CPU time for processing (ss|ss), tasks = 0 on Device 0               0.00 sec, wall time      0.00 sec, GPU time      0.29 ms
    CPU time for processing (ss|ss), tasks = 0 on Device 1               0.00 sec, wall time      0.00 sec, GPU time      0.33 ms
    CPU time for processing (ss|ss), tasks = 0 on Device 0               0.00 sec, wall time      0.00 sec, GPU time      0.34 ms
    CPU time for processing (ss|ss), tasks = 0 on Device 1               0.00 sec, wall time      0.00 sec, GPU time      0.19 ms
    CPU time for processing (ss|ss), tasks = 0 on Device 0               0.00 sec, wall time      0.00 sec, GPU time      0.48 ms
    CPU time for processing (ss|ss), tasks = 0 on Device 1               0.00 sec, wall time      0.00 sec, GPU time      0.50 ms
    CPU time for processing (ss|ss), tasks = 0 on Device 0               0.00 sec, wall time      0.00 sec, GPU time      0.19 ms
    CPU time for processing (ss|ss), tasks = 0 on Device 1               0.00 sec, wall time      0.00 sec, GPU time      0.33 ms
    CPU time for processing (ss|ss), tasks = 0 on Device 0               0.00 sec, wall time      0.00 sec, GPU time      0.35 ms
    CPU time for processing (ss|ss), tasks = 0 on Device 1               0.00 sec, wall time      0.00 sec, GPU time      0.19 ms
    CPU time for processing (ss|ss), tasks = 0 on Device 0               0.00 sec, wall time      0.00 sec, GPU time      0.29 ms
    CPU time for processing (ss|ss), tasks = 0 on Device 1               0.00 sec, wall time      0.00 sec, GPU time      0.34 ms
    CPU time for processing (ss|ss), tasks = 0 on Device 0               0.00 sec, wall time      0.00 sec, GPU time      0.23 ms
    CPU time for processing (ss|ss), tasks = 0 on Device 1               0.00 sec, wall time      0.00 sec, GPU time      0.33 ms
    CPU time for processing (ss|ss), tasks = 0 on Device 0               0.00 sec, wall time      0.00 sec, GPU time      0.34 ms
    CPU time for processing (ss|ss), tasks = 0 on Device 1               0.00 sec, wall time      0.00 sec, GPU time      0.25 ms
    CPU time for processing (ss|ss), tasks = 0 on Device 0               0.00 sec, wall time      0.00 sec, GPU time      0.24 ms
    CPU time for processing (ss|ss), tasks = 0 on Device 1               0.00 sec, wall time      0.00 sec, GPU time      0.33 ms
    CPU time for processing (ss|ss), tasks = 0 on Device 0               0.00 sec, wall time      0.00 sec, GPU time      0.34 ms
    CPU time for processing (ss|ss), tasks = 0 on Device 1               0.00 sec, wall time      0.00 sec, GPU time      0.24 ms
kernel launches 140
(pp|pp) wall time 0.00
(pp|ss) wall time 0.01
(pp|ps) wall time 0.00
(ps|pp) wall time 0.00
(ps|ps) wall time 0.01
(ps|ss) wall time 0.01
(ss|ss) wall time 0.01
    CPU time for vj and vk                                               0.06 sec, wall time      0.05 sec, GPU time     50.29 ms
    CPU time for jk total                                                0.06 sec, wall time      0.05 sec, GPU time     51.77 ms
    CPU time for veff                                                    0.10 sec, wall time      0.08 sec, GPU time     82.60 ms
E1 = nan  Ecoul = nan  Exc = nan
    CPU time for energy                                                  0.00 sec, wall time      0.00 sec, GPU time      0.58 ms
    CPU time for total                                                   0.11 sec, wall time      0.09 sec, GPU time     91.35 ms
cycle= 50 E= nan  delta_E=  nan  |ddm|=  nan

WARN: SCF failed to converge

    CPU time for SCF                                                     8.25 sec, wall time      4.93 sec, GPU time   4929.64 ms
SCF not converged.
SCF energy = nan
